,formula,full_name,band_gap,formation_energy,nn_ave_eleneg,o2p_center_from_vbm,vacancy_formation_energy,charge,vacancy_index,vr_max,Eb_sum
1488,As2Pb3O8,As2Pb3O8_Va_O3,3.2885999999999997,-1.7352351134615382,2.7163595941283405,2.9774057862274157,-1.9653822343882072,2,395,-0.6589084382122885,5.41426715557764
1489,As2Pb3O8,As2Pb3O8_Va_O4,3.2885999999999997,-1.7352351134615382,2.768647000263188,2.651400752553627,-1.4715929956733558,2,467,-0.6589084382122885,4.657231255072221
1490,As2PbO4,As2PbO4_Va_O1,2.6284999999999994,-1.6492657325,2.5488496637752465,3.6606861531341286,-2.218591991685652,2,63,-1.1369603723458594,7.063406976418128
1491,As2PbO4,As2PbO4_Va_O2,2.6284999999999994,-1.6492657325,2.6503630288382656,3.697726588387933,-1.3736386880979254,2,79,-1.1369603723458594,7.454334744341565
1492,As2PbO4,As2PbO4_Va_O3,2.6284999999999994,-1.6492657325,2.5806582237199267,3.148174099169339,-0.5998686278464951,2,95,-1.1369603723458594,5.593238558068391
1493,As2PbO4,As2PbO4_Va_O4,2.6284999999999994,-1.6492657325,2.695552037046685,3.189222957911923,-1.0925976520758711,2,111,-1.1369603723458594,5.783052080110901
1494,As2PbO6,As2PbO6_Va_O1,2.1464,-1.7356450333333333,2.8350000000000004,3.7085103290461223,-1.9155182694596695,2,242,-0.6589084382122885,6.778591273352452
1495,B4PbO7,B4PbO7_Va_O1,4.158,-2.6473397413888877,2.4960870301019216,4.0909509783768545,-1.2973302691570017,2,215,-1.1369603723458594,11.85241940185685
1496,B4PbO7,B4PbO7_Va_O2,4.158,-2.6473397413888877,2.522918939325306,3.9908693958022026,-0.9115464124463676,2,206,-1.1369603723458594,11.663483431560552
1497,B4PbO7,B4PbO7_Va_O3,4.158,-2.6473397413888877,2.4117625853743987,5.0308915055261805,-2.730940490603915,2,161,-1.1369603723458594,16.499047971193672
1498,B4PbO7,B4PbO7_Va_O4,4.158,-2.6473397413888877,2.564729948085834,3.77814546703765,-0.6453876177255,2,197,-1.1369603723458594,11.765101776696673
1499,BAsO4,BAsO4_Va_O1,4.380000000000001,-2.132276382361111,2.7750470596344017,2.9118904601513993,-0.435205826739764,2,215,-0.6589084382122885,7.892895530587905
1500,Ba(AsO3)2,Ba(AsO3)2_Va_O1,2.8693999999999997,-2.1914320077777782,2.663833653764642,2.9647492210345696,-1.233834491086151,2,239,-0.6589084382122885,6.7145620356115145
1501,Ba(AsO3)2,Ba(AsO3)2_Va_O2,2.8693999999999997,-2.1914320077777782,2.5819066683094225,3.220476701785266,-2.075177215742454,2,335,-0.6589084382122885,6.7064657574518165
1502,Ba(SbO3)2,Ba(SbO3)2_Va_O1,2.9955999999999996,-2.376871872222223,2.5516666666666667,1.939533526774728,0.3355247654794314,2,242,-0.5208045461292565,6.160432208983011
1503,Ba2Bi2O5,Ba2Bi2O5_Va_O2,1.8273,-2.288426511111112,1.8107787739008248,2.100563563987341,0.2907639053279491,2,127,-0.9858147743813158,6.407172956435611
1504,Ba2Bi2O5,Ba2Bi2O5_Va_O3,1.8273,-2.288426511111112,2.059103547200948,1.833463230597384,-0.1097790104160503,2,143,-0.9858147743813158,6.739062892043297
1505,Ba2BiSbO6,Ba2BiSbO6_Va_O1,1.7198000000000002,-2.453007994999999,2.1200535501733504,2.8375809665302967,-0.1291299034019419,2,287,-0.5208045461292565,7.084661593716241
1506,Ba2BiSbO6,Ba2BiSbO6_Va_O2,1.7198000000000002,-2.453007994999999,2.143789464639996,2.80707284290209,-0.0954487457399104,2,359,-0.5208045461292565,6.939637216944681
1507,Ba2Ca(BO2)6,Ba2Ca(BO2)6_Va_O2,5.0027,-3.1139662421428564,2.0298335064690214,2.1827533569598763,2.9623950422884584,2,251,-2.1905056483979153,7.852059616214013
1508,Ba2Ca(BO3)2,Ba2Ca(BO3)2_Va_O1,4.1151,-3.2246886053030304,1.8882133171231443,2.433555992895412,2.077007832190588,2,323,-2.1905056483979153,8.245607666090585
1509,Ba2Ca(BO3)2,Ba2Ca(BO3)2_Va_O2,4.1151,-3.2246886053030304,1.78896752470246,2.556187340152093,1.881530495056854,2,395,-2.1905056483979153,8.632118863026172
1510,Ba2In2O5,Ba2In2O5_Va_O1,0.9603000000000002,-2.424057256666667,1.701871605116176,2.3408683614378414,1.4095066147646875,2,179,-1.5993795332042406,6.609085639268365
1511,Ba2In2O5,Ba2In2O5_Va_O2,0.9603000000000002,-2.424057256666667,1.815303427119624,1.7951956170136785,1.6080459285241928,2,251,-1.5993795332042406,6.927142997205392
1512,Ba2In2O5,Ba2In2O5_Va_O3,0.9603000000000002,-2.424057256666667,1.8163577677689784,1.5994690297226244,1.65671032180648,2,323,-1.5993795332042406,8.24072644579751
1513,Ba2InGaO5,Ba2InGaO5_Va_O1,1.6127999999999996,-2.5715327063888895,1.8548761391371331,1.6845958860514234,1.5129865350553957,2,215,-1.5993795332042406,8.112504565353694
1514,Ba2InGaO5,Ba2InGaO5_Va_O2,1.6127999999999996,-2.5715327063888895,1.8773389767661623,2.1868921772527714,1.4049211883965185,2,287,-1.5993795332042406,6.688153552524943
1515,Ba2InGaO5,Ba2InGaO5_Va_O3,1.6127999999999996,-2.5715327063888895,1.696971590061099,2.869617001973725,0.9731408306001144,2,323,-1.5993795332042406,8.082294312348314
1516,Ba2Mg(BO3)2,Ba2Mg(BO3)2_Va_O1,4.7117,-3.129790906212121,1.9080018823710925,2.837647917156953,1.8497964896029984,2,296,-2.1905056483979153,8.601715361574655
1517,Ba2MgGe2O7,Ba2MgGe2O7_Va_O1,3.5078,-2.7931089208333333,2.125871812472001,2.8016680828652487,0.7238817218457103,2,143,-1.502819088333178,9.656850782148663
1518,Ba2MgGe2O7,Ba2MgGe2O7_Va_O2,3.5078,-2.7931089208333333,1.9643712694720457,1.4529151986460331,2.603317709968772,2,191,-1.502819088333178,6.921250267476255
1519,Ba2MgGe2O7,Ba2MgGe2O7_Va_O3,3.5078,-2.7931089208333333,1.9869690959925717,1.6176245584051752,1.153164287274674,2,287,-1.502819088333178,7.267290671944743
1520,Ba2MgSi2O7,Ba2MgSi2O7_Va_O1,4.5151,-3.3661644154166668,1.956148810444365,1.954080846225262,2.1108023676990877,2,215,-2.356834901289411,8.035513876517701
1521,Ba2MgSi2O7,Ba2MgSi2O7_Va_O2,4.5151,-3.3661644154166668,1.924532861082514,1.6585435562997517,3.804362175056231,2,287,-2.356834901289411,7.570287210632342
1522,Ba2MgSi2O7,Ba2MgSi2O7_Va_O3,4.5151,-3.3661644154166668,2.106248918227482,3.463631557818279,1.433671330629214,2,263,-2.356834901289411,11.300609753203275
1523,Ba2PbO4,Ba2PbO4_Va_O1,1.3264000000000002,-2.3690410357142855,2.0753768308760643,1.748229577366927,-0.2583727280988024,2,89,-0.2712847561180753,8.129338226358655
1524,Ba2PbO4,Ba2PbO4_Va_O2,1.3264000000000002,-2.3690410357142855,1.7175282197657022,1.0928715865474945,0.3645292612183823,2,125,-0.2712847561180753,7.566920639542842
1525,Ba2SiO4,Ba2SiO4_Va_O2,4.7691,-3.3619786003571424,1.7501702673414408,2.0510531204351756,2.324037813919991,2,287,-2.356834901289411,8.497103024658102
1526,Ba2SiO4,Ba2SiO4_Va_O3,4.7691,-3.3619786003571424,1.9140223485049568,1.8462819252227711,2.648694819059999,2,335,-2.356834901289411,7.666025381102768
1527,Ba2SnO4,Ba2SnO4_Va_O1,2.6748,-2.7252458707142857,1.5846067414973888,1.2392503518767148,1.8050454193369556,2,89,-1.538575818365933,7.836515734134789
1528,Ba2SnO4,Ba2SnO4_Va_O2,2.6748,-2.7252458707142857,2.0113911022161712,2.0533727474190098,0.8231386704460488,2,125,-1.538575818365933,8.833712919517737
1529,Ba3(AsO4)2,Ba3(AsO4)2_Va_O1,4.0672999999999995,-2.691978154615385,2.3065525755656915,1.8664497423710813,0.6177095365547689,2,188,-0.6589084382122885,5.103407147039576
1530,Ba3(AsO4)2,Ba3(AsO4)2_Va_O2,4.0672999999999995,-2.691978154615385,2.1447896290114725,2.1236025483072396,-0.3533348416206163,2,350,-0.6589084382122885,6.08669978564136
1531,Ba3In2O6,Ba3In2O6_Va_O1,0.8739999999999997,-2.5032603363636365,1.5027520609857827,1.366161739848722,1.936059858395203,2,251,-1.5993795332042406,7.190779450362897
1532,Ba3In2O6,Ba3In2O6_Va_O2,0.8739999999999997,-2.5032603363636365,1.7745734882720745,1.703999515715251,0.9173435266688263,2,395,-1.5993795332042406,8.10048540778639
1533,Ba3MgSb2O9,Ba3MgSb2O9_Va_O1,2.8573,-2.6995449040000006,1.9848146738019936,1.9514056810206264,1.307873987870921,2,215,-0.5208045461292565,7.257696860331362
1534,Ba3MgSb2O9,Ba3MgSb2O9_Va_O2,2.8573,-2.6995449040000006,2.175411893660774,2.4586944447654595,0.0457811021316323,2,269,-0.5208045461292565,8.615262819862899
1536,Ba3NaSbO6,Ba3NaSbO6_Va_O1,2.9642000000000004,-2.6506075655956116,1.60049408398836,1.6275298086607983,1.767963883778576,2,65,-0.5208045461292565,7.9007697617063855
1537,Ba3Sn2O7,Ba3Sn2O7_Va_O1,1.8136,-2.668890004166667,2.0470090583045017,2.0293343475276915,0.9183590303185518,2,395,-1.538575818365933,8.630710796719814
1538,Ba3Sn2O7,Ba3Sn2O7_Va_O2,1.8136,-2.668890004166667,1.5845935952348356,1.2995311952614723,1.8672103080387077,2,323,-1.538575818365933,7.801442891722393
1539,Ba3Sn2O7,Ba3Sn2O7_Va_O3,1.8136,-2.668890004166667,2.126196563023328,1.854566969926319,0.8958231037631008,2,431,-1.538575818365933,8.310895297542784
1540,Ba4InSbO8,Ba4InSbO8_Va_O1,2.4993,-2.680420198571428,1.9916364837862472,2.2239251111901437,0.630014373342179,2,79,-0.5208045461292565,7.970364776873083
1541,Ba4InSbO8,Ba4InSbO8_Va_O2,2.4993,-2.680420198571428,1.530581381110401,0.9270727729243128,2.054703029760384,2,111,-0.5208045461292565,7.480888260644942
1542,Ba4InSbO8,Ba4InSbO8_Va_O3,2.4993,-2.680420198571428,1.6498545884672875,1.6991889291753073,1.4322492765011083,2,103,-0.5208045461292565,7.5830660023157614
1543,Ba4Li(SbO4)3,Ba4Li(SbO4)3_Va_O1,1.6418,-2.5572898346666664,2.166183804459811,2.58790649360424,-0.0743969359409248,2,319,-0.5208045461292565,8.437236267321481
1544,Ba4Li(SbO4)3,Ba4Li(SbO4)3_Va_O2,1.6418,-2.5572898346666664,1.915164915208084,1.7660262731657763,0.6950853717125494,2,239,-0.5208045461292565,7.0829607207526495
1545,Ba4Na(SbO4)3,Ba4Na(SbO4)3_Va_O1,1.7089,-2.540505563827586,1.9024428441463583,1.808297026120643,0.8845503698244732,2,223,-0.5208045461292565,6.613167285603662
1546,Ba4Na(SbO4)3,Ba4Na(SbO4)3_Va_O2,1.7089,-2.540505563827586,2.1732145330654524,2.4275878382202305,-0.0490413324266842,2,319,-0.5208045461292565,8.429440560237213
1547,BaAl2Sb2O7,BaAl2Sb2O7_Va_O1,3.2695000000000003,-2.7688808362499993,2.2435777396880376,2.6281136891435875,1.2891213620893254,2,323,-1.2369755737418262,6.644653456330944
1548,BaAl2Sb2O7,BaAl2Sb2O7_Va_O2,3.2695000000000003,-2.7688808362499993,2.0252082817286667,2.0265908320338952,2.6202542499326724,2,296,-1.2369755737418262,5.3245677543906975
1549,BaBAsO5,BaBAsO5_Va_O1,3.5195000000000003,-2.627202876979167,2.314820248364252,3.325612670939345,-0.4479926754729546,2,95,-0.6589084382122885,11.807386320252771
1550,BaBAsO5,BaBAsO5_Va_O3,3.5195000000000003,-2.627202876979167,2.37488640200072,3.847976673389996,-1.980413126599892,2,191,-0.6589084382122885,9.022697136001106
1551,BaBe2(BO3)2,BaBe2(BO3)2_Va_O1,5.462999999999999,-3.120560989848485,1.9875133667322735,3.296243841007387,0.5843381463018886,2,167,-2.1905056483979153,11.692573753758518
1552,BaBe2Si2O7,BaBe2Si2O7_Va_O2,5.653700000000001,-3.3066602608333335,2.1278745441649876,2.170805629393562,1.6171214330426569,2,63,-2.356834901289411,8.803371153233876
1553,BaBe2Si2O7,BaBe2Si2O7_Va_O3,5.653700000000001,-3.3066602608333335,2.0713888722832077,2.3191452154611216,2.666392512483892,2,79,-2.356834901289411,8.994319007722247
1554,BaBe2Si2O7,BaBe2Si2O7_Va_O4,5.653700000000001,-3.3066602608333335,2.043594475797828,2.9169485351081157,1.787564992318555,2,95,-2.356834901289411,11.148921305809278
1555,BaBeSiO4,BaBeSiO4_Va_O1,4.6335,-3.324616174999999,1.9702704193946723,2.6515454803051592,2.137953560305449,2,215,-2.356834901289411,8.94430802853853
1556,BaBeSiO4,BaBeSiO4_Va_O2,4.6335,-3.324616174999999,2.036395173076552,2.6104378530900005,2.339333535800589,2,179,-2.356834901289411,8.777888449209973
1557,BaBeSiO4,BaBeSiO4_Va_O3,4.6335,-3.324616174999999,2.051428678277335,2.5551493774155816,1.707736540373698,2,251,-2.356834901289411,8.801911426464525
1558,BaBiBO4,BaBiBO4_Va_O1,3.5113000000000003,-2.6110980834523803,2.2408053105451655,2.95382701364722,-0.0753805680123356,2,431,-0.9858147743813158,7.49768569041022
1559,BaBiBO4,BaBiBO4_Va_O3,3.5113000000000003,-2.6110980834523803,2.1205169417148215,1.1874519924429037,1.0767551263462936,2,415,-0.9858147743813158,5.152916162086042
1560,BaCa(GaO2)4,BaCa(GaO2)4_Va_O1,3.1133000000000006,-2.6343520764285713,2.051275958071092,2.0898892246455905,1.0832481947718993,2,287,-1.8812876656363955,7.183620385756021
1561,BaCa(GaO2)4,BaCa(GaO2)4_Va_O2,3.1133000000000006,-2.6343520764285713,2.049749882923683,1.950754625902917,1.44466770591472,2,239,-1.8812876656363955,6.654018317660037
1562,BaCa(GaO2)4,BaCa(GaO2)4_Va_O3,3.1133000000000006,-2.6343520764285713,2.0079246625902845,1.942056585405768,0.6370192090111773,2,335,-1.8812876656363955,7.155207348799437
1563,BaCeO3,BaCeO3_Va_O1,2.8160000000000003,-3.5906097180000005,1.8350108684217412,1.4264059625723655,1.3419628257598664,2,215,-1.974911567461291,8.002971569467428
1564,BaCeO3,BaCeO3_Va_O2,2.8160000000000003,-3.5906097180000005,1.810524567323138,1.4759702902994876,1.307034937595119,2,359,-1.974911567461291,8.269712730150964
1565,BaGa2B2O7,BaGa2B2O7_Va_O1,4.0867,-2.7636706123611106,2.0813793101847797,1.866419096298746,0.5244875016673147,2,63,-1.8812876656363955,6.9328821950612936
1566,BaGa2B2O7,BaGa2B2O7_Va_O2,4.0867,-2.7636706123611106,2.183171644268999,4.10971585937684,-0.1714939903054362,2,67,-1.8812876656363955,11.80316895445485
1567,BaGa2B2O7,BaGa2B2O7_Va_O3,4.0867,-2.7636706123611106,2.177652698351102,3.0107618446602507,2.038229010513046,2,91,-1.8812876656363955,8.146251138500098
1568,BaGa2B2O7,BaGa2B2O7_Va_O4,4.0867,-2.7636706123611106,2.413505392208307,2.8267349497719536,1.7084293994668385,2,95,-1.8812876656363955,7.83354273726878
1569,BaGa4O7,BaGa4O7_Va_O1,2.4256,-2.486273411249999,2.184562762634154,3.418343293318623,-0.0165159549024598,2,287,-1.8812876656363955,7.3717408397519
1570,BaGa4O7,BaGa4O7_Va_O2,2.4256,-2.486273411249999,2.031120713759927,2.3815695472863627,1.6168960199234532,2,263,-1.8812876656363955,6.805355914270454
1571,BaGa4O7,BaGa4O7_Va_O3,2.4256,-2.486273411249999,2.2079276758982274,2.430248638420524,1.7129957041069055,2,251,-1.8812876656363955,6.016028193669821
1572,BaGeO3,BaGeO3_Va_O1,3.4095,-2.6960020335,2.0186865948217916,1.490996637447907,1.093834882849702,2,71,-1.502819088333178,6.809273711072201
1573,BaGeO3,BaGeO3_Va_O2,3.4095,-2.6960020335,2.0131570978094837,1.4936078308699072,2.0705808488734525,2,95,-1.502819088333178,6.724171674902124
1574,BaGeO3,BaGeO3_Va_O3,3.4095,-2.6960020335,2.316511368749405,2.730229943585275,-0.3786628025515486,2,119,-1.502819088333178,9.02602877405912
1575,BaGePbO4,BaGePbO4_Va_O2,3.3755,-2.3497993528571435,2.110424425675723,1.6952815919881998,0.313473227783139,2,239,-1.1369603723458594,6.7855337109057565
1576,BaGePbO4,BaGePbO4_Va_O3,3.3755,-2.3497993528571435,2.2985402101320074,2.0406621833416136,0.3156093624481774,2,287,-1.1369603723458594,6.828317025746571
1577,BaGePbO4,BaGePbO4_Va_O4,3.3755,-2.3497993528571435,2.177517978021965,2.340345299702852,0.2692090093905211,2,335,-1.1369603723458594,7.118034795031651
1578,BaLiBO3,BaLiBO3_Va_O1,4.3964,-2.9588598808333337,1.6729691364717565,2.577250853989843,2.1436312930232844,2,191,-2.1905056483979153,8.694079547248458
1579,BaLiBO3,BaLiBO3_Va_O2,4.3964,-2.9588598808333337,1.4289886026329244,2.691006742313024,1.9913639615706047,2,183,-2.1905056483979153,9.404053061271792
1580,BaLiBO3,BaLiBO3_Va_O3,4.3964,-2.9588598808333337,1.53754901310518,2.646135996449018,2.1307086333403205,2,159,-2.1905056483979153,9.127026590831267
1581,BaNaBO3,BaNaBO3_Va_O1,3.7356000000000007,-2.8548703726197324,1.5407287761432102,2.509697461111415,2.1813674053306085,2,359,-2.158566424325179,8.615444624956302
1582,BaNaBO3,BaNaBO3_Va_O2,3.7356000000000007,-2.8548703726197324,1.5373385911452355,2.5242918951106903,2.212281875780947,2,431,-2.158566424325179,8.662312579247045
1583,BaO,BaO_Va_O1,1.8639,-2.8236447624999994,0.8900000000000002,1.0286716207655016,2.9252624358033597,2,63,-2.8403280769497066,10.180656153899415
1584,BaSi3SnO9,BaSi3SnO9_Va_O1,3.8655,-3.09274423,2.471517089830876,2.5173667705719365,2.4494658833744745,2,111,-1.538575818365933,7.586329275579235
1585,BaSi3SnO9,BaSi3SnO9_Va_O2,3.8655,-3.09274423,2.4936324870049154,3.489325961160364,0.6425928274605375,2,103,-1.538575818365933,9.824481034164549
1586,BaSn(GeO3)3,BaSn(GeO3)3_Va_O1,2.7438,-2.351820577142858,2.541033501659523,2.7764566140128477,-0.2668298693588125,2,63,-1.502819088333178,7.707100451466698
1587,BaSn(GeO3)3,BaSn(GeO3)3_Va_O2,2.7438,-2.351820577142858,2.502816582503572,2.1198972465106536,0.085876632155299,2,111,-1.502819088333178,6.910120656207457
1588,BaSnO3,BaSnO3_Va_O1,0.7016,-2.5874686660000004,2.0966666666666667,2.0251399631200595,0.9738611304427298,2,134,-1.538575818365933,8.35001700950275
1589,BaSr2Mg(SiO4)2,BaSr2Mg(SiO4)2_Va_O1,4.8603,-3.37927034952381,2.065995745765302,1.8374745046862495,3.111027704224781,2,143,-2.356834901289411,7.385515498499417
1590,BaSr2Mg(SiO4)2,BaSr2Mg(SiO4)2_Va_O2,4.8603,-3.37927034952381,1.807324916546479,2.42808934416281,1.0312752078511307,2,251,-2.356834901289411,9.142102427859383
1591,BeAl2O4,BeAl2O4_Va_O1,6.2674,-3.3529182539285713,2.0969475100120025,2.331450092422872,1.8391626278048343,2,79,-2.8945619964631555,9.67417202478343
1592,BeAl2O4,BeAl2O4_Va_O2,6.2674,-3.3529182539285713,2.0443506054519656,2.945332819624798,2.4584492320133315,2,95,-2.8945619964631555,9.605088549317703
1593,BeAl2O4,BeAl2O4_Va_O3,6.2674,-3.3529182539285713,2.051983358903639,2.6570320590633525,1.8279539988484736,2,111,-2.8945619964631555,10.242105907222932
1594,BeO,BeO_Va_O1,7.4735,-3.1028558024999997,1.7045243414171556,2.56383046489316,2.148476243436656,2,299,-3.156179192239042,12.272995096389756
1595,Bi2O3,Bi2O3_Va_O1,2.1518000000000006,-1.6417272149999995,2.5534711302971105,2.572681787528063,-1.071147094963401,2,143,-0.9858147743813158,5.558325515459918
1596,Bi2O3,Bi2O3_Va_O2,2.1518000000000006,-1.6417272149999995,2.5818292627200585,2.4718292317832677,-1.038908422779985,2,191,-0.9858147743813158,4.878119841026061
1597,Bi2O3,Bi2O3_Va_O3,2.1518000000000006,-1.6417272149999995,2.523204218589346,2.561136419992206,-1.3372063484430965,2,239,-0.9858147743813158,6.196910505177226
1598,BiAsO4,BiAsO4_Va_O1,3.2501,-1.766119035,2.7975842130139705,2.621805659606698,-1.833638296065276,2,95,-0.6589084382122885,4.753785643565951
1599,BiAsO4,BiAsO4_Va_O2,3.2501,-1.766119035,2.758464278013782,2.928444901237197,-2.334013098036246,2,127,-0.6589084382122885,4.837637163281143
1600,BiAsO4,BiAsO4_Va_O3,3.2501,-1.766119035,2.758574603219192,2.592039016935125,-0.4600513502746,2,159,-0.6589084382122885,4.608425725556469
1601,BiAsO4,BiAsO4_Va_O4,3.2501,-1.766119035,2.7653769057530555,2.781303980765942,-1.8870026133493496,2,191,-0.6589084382122885,4.745521239119133
1602,BiBO3,BiBO3_Va_O1,2.9598,-2.2904667498333326,2.454892262595023,3.678526623688129,-1.711880954804211,2,287,-0.9858147743813158,7.178967174067419
1603,BiBO3,BiBO3_Va_O2,2.9598,-2.2904667498333326,2.5504895340269664,3.646173626502017,-0.3661063692983313,2,383,-0.9858147743813158,7.134707127284747
1604,BiBO3,BiBO3_Va_O3,2.9598,-2.2904667498333326,2.5259785030950317,3.6372535860496025,-0.4171236329752266,2,479,-0.9858147743813158,7.056489063180471
1607,BiSbO4,BiSbO4_Va_O1,2.7211999999999996,-1.8414490133333337,2.7621815566760333,2.536388998142183,-1.004647163372259,2,63,-0.5208045461292565,5.114989514248197
1608,BiSbO4,BiSbO4_Va_O2,2.7211999999999996,-1.8414490133333337,2.730940198763093,2.404865647399249,-0.5709323633857815,2,95,-0.5208045461292565,6.3098698243598115
1609,Ca(AsO3)2,Ca(AsO3)2_Va_O1,3.5512,-2.229921160000001,2.6133333333333333,2.5382287646651127,-0.7422423101759835,2,242,-0.6589084382122885,7.294805206234247
1610,Ca(SbO3)2,Ca(SbO3)2_Va_O1,2.819,-2.3709468211111124,2.5700000000000003,2.179507565466953,0.6167091292496201,2,242,-0.5208045461292565,6.554428525241038
1611,Ca2BiAsO6,Ca2BiAsO6_Va_O1,3.1952,-2.5414911255000003,2.1603918703408738,1.981424752983667,0.5160202194805059,2,63,-0.6589084382122885,6.6455069490928835
1612,Ca2GeO4,Ca2GeO4_Va_O1,3.5397999999999996,-2.9902279757142853,1.8187175870527823,1.6975885421144523,2.374657580528925,2,103,-1.502819088333178,8.564774886631373
1613,Ca2GeO4,Ca2GeO4_Va_O2,3.5397999999999996,-2.9902279757142853,1.9067559486019268,1.524341258968782,1.382521099187258,2,107,-1.502819088333178,8.235017314762832
1614,Ca2GeO4,Ca2GeO4_Va_O3,3.5397999999999996,-2.9902279757142853,1.8443538481348536,2.0001051572391737,2.7353940370236365,2,111,-1.502819088333178,8.377000608051688