,formula,full_name,band_gap,formation_energy,nn_ave_eleneg,o2p_center_from_vbm,vacancy_formation_energy,charge,vacancy_index,vr_max,Eb_sum
2016,Rb3AlO3,Rb3AlO3_Va_O1,2.8213,-2.192958231785714,1.1030633211895935,1.0623130519345072,4.610775115424323,2,95,-1.7562254794348755,5.542208441642566
2017,Rb3AlO3,Rb3AlO3_Va_O2,2.8213,-2.192958231785714,1.3077788944130129,2.0319298353912956,3.4813683864613636,2,111,-1.7562254794348755,7.030618337477989
2018,Rb3BiO3,Rb3BiO3_Va_O1,3.1835,-1.6211958614285713,1.2368454618170004,1.193738065945551,2.5092579751863906,2,223,-0.9858147743813158,5.139217932853101
2019,Rb3GaO3,Rb3GaO3_Va_O1,2.5813,-1.829943027142856,1.3586028396255856,1.9188954109317824,2.0656224372296386,2,79,-1.7562254794348755,6.994055539700867
2020,Rb3GaO3,Rb3GaO3_Va_O2,2.5813,-1.829943027142856,1.1253175271645046,1.1116290921680183,3.2772438056032462,2,111,-1.7562254794348755,5.650030816332581
2021,Rb3InO3,Rb3InO3_Va_O1,1.9467,-1.6420714696428569,1.067479041082411,0.7459525592720849,2.8456960577457795,2,111,-1.5993795332042406,5.565360338184656
2022,Rb3InO3,Rb3InO3_Va_O2,1.9467,-1.6420714696428569,1.275996888690673,1.512729800600991,2.2596375424337887,2,107,-1.5993795332042406,6.455459523168991
2023,Rb3InO3,Rb3InO3_Va_O3,1.9467,-1.6420714696428569,1.0834265971813364,0.6967453819358194,2.9349519839995684,2,103,-1.5993795332042406,5.065729076721874
2024,Rb3TlO3,Rb3TlO3_Va_O1,1.5343999999999998,-1.3742784501190477,1.0405368336763197,0.8603491913254215,1.6177423122381454,2,107,-0.5778080287901701,4.474254570627326
2025,Rb3TlO3,Rb3TlO3_Va_O2,1.5343999999999998,-1.3742784501190477,1.2046730369938634,1.4109851689396835,0.9967806056978544,2,111,-0.5778080287901701,5.456797152178742
2026,Rb3TlO3,Rb3TlO3_Va_O3,1.5343999999999998,-1.3742784501190477,1.0201421598319538,0.931669723709982,1.4943598331416612,2,91,-0.5778080287901701,4.978672960726369
2027,Rb4SnO3,Rb4SnO3_Va_O1,1.7874,-1.5217606543749995,1.1747528504536422,1.894352379655548,2.5340965997022895,2,233,-1.454625234810769,5.808427850047625
2028,Rb4SnO3,Rb4SnO3_Va_O3,1.7874,-1.5217606543749995,1.177163951099402,1.86705331015707,2.5565763443709018,2,287,-1.454625234810769,5.840509103090847
2029,Rb4SnO4,Rb4SnO4_Va_O1,2.2470999999999997,-1.7707643350000004,1.2535575408013142,1.126526894597595,2.927058583971658,2,215,-1.538575818365933,5.431226609560633
2030,Rb4SnO4,Rb4SnO4_Va_O2,2.2470999999999997,-1.7707643350000004,1.177260316119254,1.0449651115135987,3.087461587107363,2,251,-1.538575818365933,5.803936336056486
2031,Rb4SnO4,Rb4SnO4_Va_O3,2.2470999999999997,-1.7707643350000004,1.2171300794874034,1.109757744027597,3.089286333095043,2,287,-1.538575818365933,5.8001646644964655
2032,Rb4SnO4,Rb4SnO4_Va_O4,2.2470999999999997,-1.7707643350000004,1.1979440958840029,1.0817809391754487,2.935169418755939,2,323,-1.538575818365933,5.648633650786882
2033,Rb6Si2O7,Rb6Si2O7_Va_O2,3.3157999999999994,-2.4265757626666664,1.8430506074296524,3.551416424212495,1.647737819779143,2,227,-1.7562254794348755,10.945562546529166
2034,Rb6Si2O7,Rb6Si2O7_Va_O3,3.3157999999999994,-2.4265757626666664,1.3205817195285865,1.855323133603911,3.951887657390992,2,359,-1.7562254794348755,7.137678822865848
2035,RbAlSiO4,RbAlSiO4_Va_O1,4.4681999999999995,-3.1852192524999996,1.9923173255176243,2.52763315215416,2.824627708993557,2,191,-1.7562254794348755,8.189834539143542
2036,RbAlSiO4,RbAlSiO4_Va_O2,4.4681999999999995,-3.1852192524999996,1.8994371639343235,2.532842213623673,2.64031333681199,2,239,-1.7562254794348755,8.315275820077408
2037,RbAlSiO4,RbAlSiO4_Va_O4,4.4681999999999995,-3.1852192524999996,2.1081262881015697,2.4123340604840338,2.906345510131378,2,335,-1.7562254794348755,8.104299827577055
2038,RbAsO2,RbAsO2_Va_O1,3.8234,-1.8659498662499991,2.047080228348106,3.189099695784902,-0.5496837011697369,2,143,-1.150088447140494,8.48385148137659
2039,RbBO2,RbBO2_Va_O1,4.0156,-2.622254900833333,1.3946434677834016,2.1753724478080345,5.602765463751249,2,107,-1.7562254794348755,7.332169856967033
2040,RbBa4Sb3O,RbBa4Sb3O_Va_O1,0.8528000000000002,-1.4364363497222223,0.9247452279173402,2.827345583194348,1.9210098891609977,2,143,-1.7562254794348755,6.78710410259961
2041,RbBiO2,RbBiO2_Va_O1,1.9585999999999997,-1.694015584374999,1.730540124449983,2.079345563157339,0.5952252403568687,2,191,-0.9858147743813158,5.28746337195769
2042,RbMgBO3,RbMgBO3_Va_O1,4.4726,-2.766051768611111,1.6446800218680575,2.2991347128620023,2.678639903436089,2,191,-1.7562254794348755,8.64402468879716
2043,RbNa2BO3,RbNa2BO3_Va_O1,3.17,-2.251398343538588,1.2815366863860267,2.6912552791651994,3.217022066426616,2,111,-1.7562254794348755,8.499954656907903
2044,RbNa2BO3,RbNa2BO3_Va_O2,3.17,-2.251398343538588,1.3236821489665178,2.5993584714116977,3.799921795060889,2,95,-1.7562254794348755,8.015415777202502
2045,RbSbO2,RbSbO2_Va_O1,2.1201,-1.864373579375,1.8388526718097649,2.848037453621166,0.4457588105823111,2,191,-1.2369755737418262,8.409589471335748
2046,RbTlO2,RbTlO2_Va_O1,0.9237000000000002,-1.324072010208333,1.5521423638260838,1.6179682841163912,-0.2171781296314696,2,299,-0.5778080287901701,6.313025587554269
2047,RbTlO,RbTlO_Va_O1,1.1948,-1.1706777986111103,1.324218627261024,1.9929550085561316,1.0765454219415016,2,95,-0.8674893634033586,6.529925965698341
2048,Sb2O3,Sb2O3_Va_O1,1.842700000000001,-1.751737502,2.544741242141955,3.479270991356791,-2.4440124511067087,2,47,-1.2369755737418262,11.414250733408618
2049,Sb2O5,Sb2O5_Va_O1,0.5914000000000001,-1.74803409,2.9272694822707885,2.40437376075443,-0.2854032883053272,2,107,-0.5208045461292565,4.823666932753651
2050,Sb2O5,Sb2O5_Va_O2,0.5914000000000001,-1.74803409,2.930273060929127,2.354301334353211,0.0243211726687433,2,251,-0.5208045461292565,4.809431196654455
2051,Sb2O5,Sb2O5_Va_O3,0.5914000000000001,-1.74803409,2.8160921979354785,3.3411517317835076,-1.3041811156040253,2,215,-0.5208045461292565,7.145723235331324
2052,Sb2PbO6,Sb2PbO6_Va_O1,1.8615999999999993,-1.900305225555556,2.791666666666667,3.264053158069724,-0.7129099759191244,2,71,-0.5208045461292565,6.035169602535654
2053,SbAsO3,SbAsO3_Va_O1,3.257,-1.6997547515000004,2.6617779987008463,3.233004375837125,-1.504653213906757,2,71,-1.150088447140494,8.25137348590599
2054,SbAsO3,SbAsO3_Va_O2,3.257,-1.6997547515000004,2.5758892938962794,3.120973725974879,-1.5535182982435658,2,95,-1.150088447140494,7.497520622090304
2055,SbAsO3,SbAsO3_Va_O3,3.257,-1.6997547515000004,2.6776114751845843,3.238784307377601,-1.7193726986916622,2,119,-1.150088447140494,7.753080561553481
2060,SiO2,SiO2_Va_O1,5.785699999999999,-3.267179193333333,2.67,2.858249381991186,3.704156758469766,2,215,-2.356834901289411,9.635406577802385
2064,SnB4O7,SnB4O7_Va_O1,3.4541000000000004,-2.6146258118055554,2.4866818536794777,4.7280040897409,-1.2802525626802814,2,107,-1.454625234810769,11.984572548737273
2065,SnB4O7,SnB4O7_Va_O2,3.4541000000000004,-2.6146258118055554,2.3909703478304167,5.7315294788507956,-2.906350737052588,2,143,-1.454625234810769,16.253512582486607
2066,SnB4O7,SnB4O7_Va_O3,3.4541000000000004,-2.6146258118055554,2.4263919365401607,4.843565196622258,-1.6684682834869151,2,179,-1.454625234810769,11.898018518984987
2067,SnB4O7,SnB4O7_Va_O4,3.4541000000000004,-2.6146258118055554,2.4685555713397687,4.650600397134114,-0.9404997804583092,2,215,-1.454625234810769,11.521792531413686
2068,SnO2,SnO2_Va_O1,0.8614000000000002,-2.107481543333334,2.6999999999999997,2.689198165456612,0.4874946412465335,2,71,-1.538575818365933,7.137871435101152
2069,Sr(AsO3)2,Sr(AsO3)2_Va_O1,3.4882999999999997,-2.233057519074074,2.605,2.4830881013655195,-0.6603201648136243,2,71,-0.6589084382122885,7.0786409613724395
2070,Sr(BO2)2,Sr(BO2)2_Va_O1,4.9695,-3.1235381182142854,2.0343749131611357,2.1615546231003835,2.1268773190224017,2,167,-2.1905056483979153,8.015795760953274
2071,Sr(BO2)2,Sr(BO2)2_Va_O2,4.9695,-3.1235381182142854,2.212165616451734,4.007286451289397,0.3575153900089236,2,143,-2.1905056483979153,11.598200676403653
2072,Sr(BiO2)2,Sr(BiO2)2_Va_O1,2.4357,-2.1114339966666664,2.324548257724588,2.5410450963922,-1.4623077333785242,2,191,-0.9858147743813158,6.090300941676578
2073,Sr(BiO2)2,Sr(BiO2)2_Va_O2,2.4357,-2.1114339966666664,2.029107554714632,1.6113191240651374,0.3173486918524233,2,239,-0.9858147743813158,6.080905588667724
2074,Sr(BiO2)2,Sr(BiO2)2_Va_O3,2.4357,-2.1114339966666664,1.9921489585095735,1.479765478436082,0.5371041497430014,2,287,-0.9858147743813158,5.9676524714118635
2075,Sr(BiO2)2,Sr(BiO2)2_Va_O4,2.4357,-2.1114339966666664,2.4698862172393645,2.4288303816261245,-1.654449219348317,2,335,-0.9858147743813158,4.959525829987516
2076,Sr(SbO3)2,Sr(SbO3)2_Va_O1,2.9061999999999997,-2.3865939085185186,2.561666666666667,2.035490482256219,0.7147319307183222,2,71,-0.5208045461292565,6.343665406811406
2077,Sr2CeO4,Sr2CeO4_Va_O1,2.8113,-3.4935232297619043,1.7461864139507632,1.5237580760513547,2.012499447644865,2,299,-1.974911567461291,9.181501625815043
2078,Sr2CeO4,Sr2CeO4_Va_O2,2.8113,-3.4935232297619043,1.6160149065174287,1.3414551932417476,2.3174261414614614,2,419,-1.974911567461291,8.46002196578819
2079,Sr2GeO4,Sr2GeO4_Va_O1,3.5318999999999994,-2.9120691372619047,2.0119919774690533,1.7370118308883735,1.747469324067139,2,63,-1.502819088333178,7.235460606090049
2080,Sr2GeO4,Sr2GeO4_Va_O2,3.5318999999999994,-2.9120691372619047,1.801454504713544,1.8924632325639064,1.7920450674957245,2,79,-1.502819088333178,8.141239563346236
2081,Sr2GeO4,Sr2GeO4_Va_O3,3.5318999999999994,-2.9120691372619047,1.84635061077502,1.8548873432259887,0.53923867848175,2,95,-1.502819088333178,8.18156133023514
2082,Sr2InSbO6,Sr2InSbO6_Va_O1,1.9202999999999997,-2.583106877333333,2.103119176484185,1.8687805300230036,1.0102080488161342,2,75,-0.5208045461292565,7.647113274180463
2083,Sr2InSbO6,Sr2InSbO6_Va_O2,1.9202999999999997,-2.583106877333333,2.103499655842161,1.8901487812913813,1.047461155161384,2,79,-0.5208045461292565,7.634493299592087
2084,Sr2InSbO6,Sr2InSbO6_Va_O3,1.9202999999999997,-2.583106877333333,2.111956822324779,1.909329567993505,1.032574455183394,2,63,-0.5208045461292565,7.436519918991666
2085,Sr2Mg(BO3)2,Sr2Mg(BO3)2_Va_O1,4.664199999999999,-3.1881523910606067,1.969591113489994,2.7036102839646188,2.075356871772523,2,395,-2.1905056483979153,8.447413222378383
2086,Sr2Mg(BO3)2,Sr2Mg(BO3)2_Va_O2,4.664199999999999,-3.1881523910606067,1.8596019315711665,2.847850531163455,1.7947765852152178,2,359,-2.1905056483979153,8.90188062142321
2087,Sr2MgGe2O7,Sr2MgGe2O7_Va_O1,3.4777,-2.813852504861111,2.106276710195257,2.8964387302764214,0.4002640128397186,2,287,-1.502819088333178,10.009187916350854
2088,Sr2MgGe2O7,Sr2MgGe2O7_Va_O2,3.4777,-2.813852504861111,1.9984905015071912,1.5907947350894416,0.7826925138577567,2,275,-1.502819088333178,7.408724529619132
2089,Sr2MgGe2O7,Sr2MgGe2O7_Va_O3,3.4777,-2.813852504861111,2.019881563130175,1.400426284337247,1.2995936316090098,2,227,-1.502819088333178,7.075727552299279
2090,Sr2MgSi2O7,Sr2MgSi2O7_Va_O2,4.5134,-3.401855501527778,1.9814207009422955,1.654688585253258,2.4701913902413595,2,287,-2.356834901289411,7.706977503446515
2091,Sr2MgSi2O7,Sr2MgSi2O7_Va_O3,4.5134,-3.401855501527778,2.0760255569431743,3.625323326053503,1.373267173203564,2,263,-2.356834901289411,11.641482688957954
2092,Sr2PbO4,Sr2PbO4_Va_O1,1.4673000000000005,-2.466891851190476,1.8333932892028373,1.2909229458646654,1.695851339956143,2,299,-0.2712847561180753,8.44290674797818
2093,Sr2PbO4,Sr2PbO4_Va_O2,1.4673000000000005,-2.466891851190476,2.130806746421933,1.2647395656126572,0.871799279393813,2,419,-0.2712847561180753,7.929070077956487
2094,Sr2Sb2O7,Sr2Sb2O7_Va_O1,1.5038,-2.5705959062121213,2.459055399322205,2.6840017410813624,0.0712016207670784,2,255,-0.5208045461292565,7.052332205944591
2095,Sr2Sb2O7,Sr2Sb2O7_Va_O2,1.5038,-2.5705959062121213,2.4560691981034015,2.865612737955333,0.1185994727642563,2,287,-0.5208045461292565,6.687254863333671
2096,Sr2Sb2O7,Sr2Sb2O7_Va_O3,1.5038,-2.5705959062121213,2.013854602303889,1.7970500046544078,1.6168808596254638,2,351,-0.5208045461292565,6.886168050776487
2097,Sr2SiO4,Sr2SiO4_Va_O2,4.5842,-3.422863758690476,1.8141372600035992,2.1815756368674126,1.1856895671429464,2,79,-2.356834901289411,8.55670638940976
2098,Sr2SiO4,Sr2SiO4_Va_O3,4.5842,-3.422863758690476,1.7630523901393695,2.2575793232741708,2.480822486712031,2,95,-2.356834901289411,8.857948937383519
2099,Sr2SiO4,Sr2SiO4_Va_O4,4.5842,-3.422863758690476,1.9822723634755313,2.003378364216619,2.6917022461087443,2,111,-2.356834901289411,7.779044420060947
2100,Sr2SnO4,Sr2SnO4_Va_O1,2.8567,-2.7861135097619045,1.6933973178721695,1.243837549095172,1.9157561705151176,2,79,-1.538575818365933,7.7397681979101085
2101,Sr2SnO4,Sr2SnO4_Va_O2,2.8567,-2.7861135097619045,1.9692086761336776,2.139614610681748,0.8889401203754499,2,95,-1.538575818365933,9.188272310832907
2102,Sr2SnO4,Sr2SnO4_Va_O3,2.8567,-2.7861135097619045,1.983597351297278,1.9553647811038304,1.1602900201373585,2,111,-1.538575818365933,9.165865035081499
2103,Sr3LiSbO6,Sr3LiSbO6_Va_O1,3.2918,-2.7778109675757583,1.6314690596991734,1.7724214107810354,1.5778167966231509,2,65,-0.5208045461292565,8.83946867813262
2104,SrAl2(SiO4)2,SrAl2(SiO4)2_Va_O1,4.713,-3.4431226516666653,2.554218117175958,2.1900283165736223,3.371569996222281,2,125,-2.356834901289411,7.432281630168499
2105,SrAl2(SiO4)2,SrAl2(SiO4)2_Va_O2,4.713,-3.4431226516666653,2.2101591313762072,2.7312975627248033,2.212752503367162,2,233,-2.356834901289411,8.550227598026554
2106,SrAl4O7,SrAl4O7_Va_O1,3.8043,-3.464532970555555,2.0686637973355024,3.3886414129236364,1.7682999760985685,2,167,-2.8945619964631555,7.9148942845019725
2107,SrAl4O7,SrAl4O7_Va_O2,3.8043,-3.464532970555555,2.1085699467055883,2.2704895205259694,3.837158784627816,2,215,-2.8945619964631555,6.431531718992251
2108,SrAl4O7,SrAl4O7_Va_O3,3.8043,-3.464532970555555,1.937806108722431,2.331783423377374,3.1054495015053365,2,287,-2.8945619964631555,7.198433459228888
2109,SrBe3O4,SrBe3O4_Va_O1,4.028600000000001,-3.1129027464583334,1.6533110910502504,2.5581943510658087,3.044927438335551,2,63,-3.067823794114626,10.412425645353787
2110,SrBe3O4,SrBe3O4_Va_O2,4.028600000000001,-3.1129027464583334,1.5282350663416238,1.7171848755800505,2.885134493218991,2,47,-3.067823794114626,8.355501542311659
2111,SrGa2B2O7,SrGa2B2O7_Va_O1,4.0775,-2.769393090833332,2.2230932647757946,4.065944714189673,0.1763575667204717,2,55,-1.8812876656363955,11.737117365146418
2112,SrGa2B2O7,SrGa2B2O7_Va_O2,4.0775,-2.769393090833332,2.0715789785851046,1.8267356589499184,0.5146640028625116,2,91,-1.8812876656363955,7.241704071252528
2113,SrGa2B2O7,SrGa2B2O7_Va_O3,4.0775,-2.769393090833332,2.165847515895333,2.96473968899833,0.8656775874302414,2,95,-1.8812876656363955,8.220840317329623
2114,SrGa2B2O7,SrGa2B2O7_Va_O4,4.0775,-2.769393090833332,2.4300912585032153,2.793130609574969,0.6100644725934494,2,83,-1.8812876656363955,8.119684374258432
2115,SrGa4O7,SrGa4O7_Va_O2,2.5694999999999997,-2.5024807226388877,2.2095961790805183,2.3143721592175077,1.652459204377871,2,191,-1.8812876656363955,6.223637550930445
2116,SrGa4O7,SrGa4O7_Va_O3,2.5694999999999997,-2.5024807226388877,2.044322650399085,2.234831930429887,1.481515225706411,2,287,-1.8812876656363955,6.952575013353426
2117,SrGa4O7,SrGa4O7_Va_O4,2.5694999999999997,-2.5024807226388877,2.1994684574528893,3.2233249975748306,-0.1260982117340052,2,263,-1.8812876656363955,7.351101365958885
2118,SrGePbO4,SrGePbO4_Va_O1,3.4394000000000005,-2.3839253838095233,2.228592646439861,2.31437235064919,0.1933370730417172,2,191,-1.1369603723458594,7.349590073717124
2119,SrGePbO4,SrGePbO4_Va_O2,3.4394000000000005,-2.3839253838095233,2.139793199731156,1.8399136821187208,0.2697980782101401,2,239,-1.1369603723458594,7.3418890836932444
2120,SrGePbO4,SrGePbO4_Va_O3,3.4394000000000005,-2.3839253838095233,2.286921758507515,2.1805350707014504,0.2601868682994879,2,287,-1.1369603723458594,7.087526368606651
2121,SrGePbO4,SrGePbO4_Va_O4,3.4394000000000005,-2.3839253838095233,2.197940068845184,2.36503167400965,0.3577054842737885,2,335,-1.1369603723458594,7.463789789653619
2122,SrIn2O4,SrIn2O4_Va_O1,1.8881000000000008,-2.357273833095238,1.975956619531696,1.8071453573751548,1.3402534332253642,2,47,-1.5993795332042406,8.414530797562097
2123,SrIn2O4,SrIn2O4_Va_O2,1.8881000000000008,-2.357273833095238,1.9731408891390827,1.5315136840051684,1.2584773653376833,2,59,-1.5993795332042406,8.816721409760925
2124,SrIn2O4,SrIn2O4_Va_O3,1.8881000000000008,-2.357273833095238,2.1229562814465397,1.4984038828330914,1.2255904040940293,2,71,-1.5993795332042406,7.989737324854365
2125,SrIn2O4,SrIn2O4_Va_O4,1.8881000000000008,-2.357273833095238,2.0210026484402803,1.630761717052397,1.1661962108236763,2,83,-1.5993795332042406,8.525169987449821
2126,SrLi2SiO4,SrLi2SiO4_Va_O1,4.6882,-3.0221305220833337,1.482926365398387,1.8266348316816623,3.3525118850037665,2,161,-2.356834901289411,9.284961101737402
2127,SrLi2SiO4,SrLi2SiO4_Va_O2,4.6882,-3.0221305220833337,1.470910524122716,1.9269463357027872,3.089208925185678,2,215,-2.356834901289411,9.52745028752607
2128,SrLiBO3,SrLiBO3_Va_O1,4.4504,-2.9997611794444454,1.4591439551030227,2.6759944811907257,2.368445445363061,2,191,-2.1905056483979153,9.366888340815612
2129,SrLiBO3,SrLiBO3_Va_O2,4.4504,-2.9997611794444454,1.695933600275719,2.5661350527155924,2.3992975105196908,2,183,-2.1905056483979153,8.90318277237432
2130,SrLiBO3,SrLiBO3_Va_O3,4.4504,-2.9997611794444454,1.5105340412527664,2.644823179286754,2.330638083497968,2,159,-2.1905056483979153,9.374989632023446
2131,SrO,SrO_Va_O1,3.1607000000000003,-3.077090665833333,0.9500000000000002,0.908791266440336,3.82069807799404,2,63,-3.067823794114626,10.455647588229251
2132,SrPbO3,SrPbO3_Va_O1,0.8837999999999999,-2.1561375228333324,2.2539923811744185,1.532005192005701,0.0745024407813379,2,305,-0.2712847561180753,6.745056165102508
2133,SrPbO3,SrPbO3_Va_O2,0.8837999999999999,-2.1561375228333324,2.2388598914155593,1.4658836270450994,0.1555864603969214,2,359,-0.2712847561180753,7.461478664711703
2134,SrSn(BO3)2,SrSn(BO3)2_Va_O1,3.814599999999999,-2.8331703589999995,2.3137141771732708,2.7809334773488184,0.1317356538183387,2,269,-1.538575818365933,8.017401857042907
2135,SrSnO3,SrSnO3_Va_O1,1.9664,-2.637945564833333,2.116172940657988,1.882989803022736,1.063512574112727,2,287,-1.538575818365933,8.394890781692196
2136,SrSnO3,SrSnO3_Va_O2,1.9664,-2.637945564833333,2.1240512179988422,1.9014707125479116,1.0387557685588198,2,359,-1.538575818365933,8.319674043297496
2137,Tl2O,Tl2O_Va_O1,0.3592000000000004,-0.8199783955555553,1.6847532472986757,2.450006096135706,-1.3306771732245497,2,449,-0.8674893634033586,8.092136163804724
2138,Tl2SnO3,Tl2SnO3_Va_O1,1.0258000000000005,-1.5003471177777783,2.3086155511875828,3.3593190693101445,-0.6252152741448502,2,63,-0.8674893634033586,8.94145001832899
2139,Tl2SnO3,Tl2SnO3_Va_O2,1.0258000000000005,-1.5003471177777783,2.269492997378121,3.0497117872618964,0.0502668934221541,2,79,-0.8674893634033586,7.259729843659802
2140,Tl2SnO3,Tl2SnO3_Va_O3,1.0258000000000005,-1.5003471177777783,2.1350711302464656,2.7594583476664427,-0.2565093743339308,2,95,-0.8674893634033586,6.551933446707559
2141,Tl3BO3,Tl3BO3_Va_O1,1.2292999999999998,-1.6481950663095244,2.065470055230187,3.884383397262264,-0.224703075545317,2,279,-0.8674893634033586,7.723436994727074
2142,Tl6Si2O7,Tl6Si2O7_Va_O1,1.2203999999999997,-1.905314270666666,2.1098998001661045,3.5557461656266147,0.9944575321542852,2,239,-0.8674893634033586,7.227384164165747
2143,Tl6Si2O7,Tl6Si2O7_Va_O2,1.2203999999999997,-1.905314270666666,2.2174035543785906,4.885201324285101,0.2394090991427995,2,175,-0.8674893634033586,10.815256078510286
2144,TlSbO3,TlSbO3_Va_O1,2.3711,-1.7144332416666668,2.5046166686920737,3.2383319675300344,-0.2947829538391144,2,179,-0.5208045461292565,5.988263464409254