,formula,full_name,band_gap,formation_energy,nn_ave_eleneg,o2p_center_from_vbm,vacancy_formation_energy,charge,vacancy_index,vr_max,Eb_sum
1355,Rb4SnO4,Rb4SnO4_Va_O1,2.2470999999999997,-1.7707643350000004,1.2535575408013142,1.126526894597595,2.9671286458669197,1,215,-1.538575818365933,5.431226609560633
1356,Rb4SnO4,Rb4SnO4_Va_O2,2.2470999999999997,-1.7707643350000004,1.177260316119254,1.0449651115135987,3.2493054571040485,1,251,-1.538575818365933,5.803936336056486
1357,Rb4SnO4,Rb4SnO4_Va_O3,2.2470999999999997,-1.7707643350000004,1.2171300794874034,1.109757744027597,3.1248569645076865,1,287,-1.538575818365933,5.8001646644964655
1358,Rb4SnO4,Rb4SnO4_Va_O4,2.2470999999999997,-1.7707643350000004,1.1979440958840029,1.0817809391754487,3.008054131243475,1,323,-1.538575818365933,5.648633650786882
1359,Rb6Si2O7,Rb6Si2O7_Va_O1,3.3157999999999994,-2.4265757626666664,1.2846846109124377,1.886047280338284,4.709131243774137,1,275,-1.7562254794348755,7.265747617287543
1360,Rb6Si2O7,Rb6Si2O7_Va_O2,3.3157999999999994,-2.4265757626666664,1.8430506074296524,3.551416424212495,3.948430335283594,1,227,-1.7562254794348755,10.945562546529166
1361,Rb6Si2O7,Rb6Si2O7_Va_O3,3.3157999999999994,-2.4265757626666664,1.3205817195285865,1.855323133603911,4.69783945135968,1,359,-1.7562254794348755,7.137678822865848
1362,Rb6Si2O7,Rb6Si2O7_Va_O4,3.3157999999999994,-2.4265757626666664,1.3013686485182614,1.8455291388056272,4.678891169993983,1,323,-1.7562254794348755,7.081976173459338
1363,RbAlSiO4,RbAlSiO4_Va_O1,4.4681999999999995,-3.1852192524999996,1.9923173255176243,2.52763315215416,4.725916616476926,1,191,-1.7562254794348755,8.189834539143542
1364,RbAlSiO4,RbAlSiO4_Va_O2,4.4681999999999995,-3.1852192524999996,1.8994371639343235,2.532842213623673,4.894763679427032,1,239,-1.7562254794348755,8.315275820077408
1365,RbAlSiO4,RbAlSiO4_Va_O3,4.4681999999999995,-3.1852192524999996,1.8957617866806304,2.547982180784578,4.911927633347533,1,287,-1.7562254794348755,8.314778080847402
1366,RbAlSiO4,RbAlSiO4_Va_O4,4.4681999999999995,-3.1852192524999996,2.1081262881015697,2.4123340604840338,4.709394775563582,1,335,-1.7562254794348755,8.104299827577055
1367,RbAsO2,RbAsO2_Va_O1,3.8234,-1.8659498662499991,2.047080228348106,3.189099695784902,1.6067997448929705,1,143,-1.150088447140494,8.48385148137659
1368,RbAsO2,RbAsO2_Va_O2,3.8234,-1.8659498662499991,1.6025355494432765,2.0620363302223153,2.5378502042940463,1,191,-1.150088447140494,5.8716563676168185
1369,RbBO2,RbBO2_Va_O1,4.0156,-2.622254900833333,1.3946434677834016,2.1753724478080345,5.348059133995626,1,107,-1.7562254794348755,7.332169856967033
1370,RbBO2,RbBO2_Va_O2,4.0156,-2.622254900833333,1.8228153017123696,4.178610917163613,3.812656891523446,1,143,-1.7562254794348755,11.688255544726506
1371,RbBiO2,RbBiO2_Va_O1,1.9585999999999997,-1.694015584374999,1.730540124449983,2.079345563157339,2.218660677408039,1,191,-0.9858147743813158,5.28746337195769
1372,RbMgBO3,RbMgBO3_Va_O1,4.4726,-2.766051768611111,1.6446800218680575,2.2991347128620023,4.4744703646448505,1,191,-1.7562254794348755,8.64402468879716
1373,RbNa2BO3,RbNa2BO3_Va_O1,3.17,-2.251398343538588,1.2815366863860267,2.6912552791651994,4.687386903198179,1,111,-1.7562254794348755,8.499954656907903
1374,RbNa2BO3,RbNa2BO3_Va_O2,3.17,-2.251398343538588,1.3236821489665178,2.5993584714116977,4.873915598519942,1,95,-1.7562254794348755,8.015415777202502
1375,RbSbO2,RbSbO2_Va_O1,2.1201,-1.864373579375,1.8388526718097649,2.848037453621166,2.287896105284667,1,191,-1.2369755737418262,8.409589471335748
1376,RbTlO,RbTlO_Va_O1,1.1948,-1.1706777986111103,1.324218627261024,1.9929550085561316,2.1638664020715312,1,95,-0.8674893634033586,6.529925965698341
1377,Sb2O3,Sb2O3_Va_O1,1.842700000000001,-1.751737502,2.544741242141955,3.479270991356791,1.3615332420943422,1,47,-1.2369755737418262,11.414250733408618
1378,Sb2O3,Sb2O3_Va_O2,1.842700000000001,-1.751737502,2.659676891928514,3.6453132200419622,1.342556606925415,1,79,-1.2369755737418262,9.226877985068997
1379,Sb2PbO6,Sb2PbO6_Va_O1,1.8615999999999993,-1.900305225555556,2.791666666666667,3.264053158069724,1.9156482987407932,1,71,-0.5208045461292565,6.035169602535654
1380,SbAsO3,SbAsO3_Va_O1,3.257,-1.6997547515000004,2.6617779987008463,3.233004375837125,1.4549659834949389,1,71,-1.150088447140494,8.25137348590599
1381,SbAsO3,SbAsO3_Va_O2,3.257,-1.6997547515000004,2.5758892938962794,3.120973725974879,1.58685780805539,1,95,-1.150088447140494,7.497520622090304
1382,SbAsO3,SbAsO3_Va_O3,3.257,-1.6997547515000004,2.6776114751845843,3.238784307377601,1.3162035616637395,1,119,-1.150088447140494,7.753080561553481
1387,SiO2,SiO2_Va_O1,5.785699999999999,-3.267179193333333,2.67,2.858249381991186,4.9929877338973965,1,215,-2.356834901289411,9.635406577802385
1391,SnB4O7,SnB4O7_Va_O1,3.4541000000000004,-2.6146258118055554,2.4866818536794777,4.7280040897409,3.4478852254678145,1,107,-1.454625234810769,11.984572548737273
1392,SnB4O7,SnB4O7_Va_O2,3.4541000000000004,-2.6146258118055554,2.3909703478304167,5.7315294788507956,2.8590367443788924,1,143,-1.454625234810769,16.253512582486607
1393,SnB4O7,SnB4O7_Va_O3,3.4541000000000004,-2.6146258118055554,2.4263919365401607,4.843565196622258,3.1917039976913646,1,179,-1.454625234810769,11.898018518984987
1394,SnB4O7,SnB4O7_Va_O4,3.4541000000000004,-2.6146258118055554,2.4685555713397687,4.650600397134114,3.428893126458652,1,215,-1.454625234810769,11.521792531413686
1395,SnO2,SnO2_Va_O1,0.8614000000000002,-2.107481543333334,2.6999999999999997,2.689198165456612,2.6054480568309515,1,71,-1.538575818365933,7.137871435101152
1396,Sr(AsO3)2,Sr(AsO3)2_Va_O1,3.4882999999999997,-2.233057519074074,2.605,2.4830881013655195,2.049322322578874,1,71,-0.6589084382122885,7.0786409613724395
1397,Sr(BO2)2,Sr(BO2)2_Va_O1,4.9695,-3.1235381182142854,2.0343749131611357,2.1615546231003835,4.957801076133615,1,167,-2.1905056483979153,8.015795760953274
1398,Sr(BO2)2,Sr(BO2)2_Va_O2,4.9695,-3.1235381182142854,2.212165616451734,4.007286451289397,4.05026518981608,1,143,-2.1905056483979153,11.598200676403653
1399,Sr(BiO2)2,Sr(BiO2)2_Va_O1,2.4357,-2.1114339966666664,2.324548257724588,2.5410450963922,1.43297121371456,1,191,-0.9858147743813158,6.090300941676578
1400,Sr(BiO2)2,Sr(BiO2)2_Va_O2,2.4357,-2.1114339966666664,2.029107554714632,1.6113191240651374,1.7946459805882236,1,239,-0.9858147743813158,6.080905588667724
1401,Sr(BiO2)2,Sr(BiO2)2_Va_O3,2.4357,-2.1114339966666664,1.9921489585095735,1.479765478436082,2.481994769453447,1,287,-0.9858147743813158,5.9676524714118635
1402,Sr(BiO2)2,Sr(BiO2)2_Va_O4,2.4357,-2.1114339966666664,2.4698862172393645,2.4288303816261245,1.6195944724626754,1,335,-0.9858147743813158,4.959525829987516
1403,Sr(SbO3)2,Sr(SbO3)2_Va_O1,2.9061999999999997,-2.3865939085185186,2.561666666666667,2.035490482256219,2.545143821518872,1,71,-0.5208045461292565,6.343665406811406
1404,Sr2CeO4,Sr2CeO4_Va_O1,2.8113,-3.4935232297619043,1.7461864139507632,1.5237580760513547,3.645454613363686,1,299,-1.974911567461291,9.181501625815043
1405,Sr2CeO4,Sr2CeO4_Va_O2,2.8113,-3.4935232297619043,1.6160149065174287,1.3414551932417476,3.964269371699314,1,419,-1.974911567461291,8.46002196578819
1406,Sr2GeO4,Sr2GeO4_Va_O1,3.5318999999999994,-2.9120691372619047,2.0119919774690533,1.7370118308883735,2.8244520145824445,1,63,-1.502819088333178,7.235460606090049
1407,Sr2GeO4,Sr2GeO4_Va_O2,3.5318999999999994,-2.9120691372619047,1.801454504713544,1.8924632325639064,3.189535404149213,1,79,-1.502819088333178,8.141239563346236
1408,Sr2GeO4,Sr2GeO4_Va_O3,3.5318999999999994,-2.9120691372619047,1.84635061077502,1.8548873432259887,3.2246144768220306,1,95,-1.502819088333178,8.18156133023514
1409,Sr2GeO4,Sr2GeO4_Va_O4,3.5318999999999994,-2.9120691372619047,1.849858733985163,1.9675209191440468,3.0708767600944915,1,111,-1.502819088333178,7.899337960355683
1410,Sr2Mg(BO3)2,Sr2Mg(BO3)2_Va_O1,4.664199999999999,-3.1881523910606067,1.969591113489994,2.7036102839646188,4.370187054003863,1,395,-2.1905056483979153,8.447413222378383
1411,Sr2Mg(BO3)2,Sr2Mg(BO3)2_Va_O2,4.664199999999999,-3.1881523910606067,1.8596019315711665,2.847850531163455,4.3720019899902365,1,359,-2.1905056483979153,8.90188062142321
1412,Sr2MgGe2O7,Sr2MgGe2O7_Va_O1,3.4777,-2.813852504861111,2.106276710195257,2.8964387302764214,2.360758797264041,1,287,-1.502819088333178,10.009187916350854
1413,Sr2MgGe2O7,Sr2MgGe2O7_Va_O2,3.4777,-2.813852504861111,1.9984905015071912,1.5907947350894416,3.080403630183479,1,275,-1.502819088333178,7.408724529619132
1414,Sr2MgGe2O7,Sr2MgGe2O7_Va_O3,3.4777,-2.813852504861111,2.019881563130175,1.400426284337247,2.7384787459547084,1,227,-1.502819088333178,7.075727552299279
1415,Sr2MgSi2O7,Sr2MgSi2O7_Va_O1,4.5134,-3.401855501527778,1.9636617275158448,1.999936882939497,4.752275521619286,1,215,-2.356834901289411,8.305973929881906
1416,Sr2MgSi2O7,Sr2MgSi2O7_Va_O2,4.5134,-3.401855501527778,1.9814207009422955,1.654688585253258,4.559021137870245,1,287,-2.356834901289411,7.706977503446515
1417,Sr2MgSi2O7,Sr2MgSi2O7_Va_O3,4.5134,-3.401855501527778,2.0760255569431743,3.625323326053503,3.804751891966366,1,263,-2.356834901289411,11.641482688957954
1418,Sr2PbO4,Sr2PbO4_Va_O1,1.4673000000000005,-2.466891851190476,1.8333932892028373,1.2909229458646654,2.5696332411711564,1,299,-0.2712847561180753,8.44290674797818
1419,Sr2Sb2O7,Sr2Sb2O7_Va_O1,1.5038,-2.5705959062121213,2.459055399322205,2.6840017410813624,2.2107606239462223,1,255,-0.5208045461292565,7.052332205944591
1420,Sr2Sb2O7,Sr2Sb2O7_Va_O2,1.5038,-2.5705959062121213,2.4560691981034015,2.865612737955333,2.379392851262539,1,287,-0.5208045461292565,6.687254863333671
1421,Sr2Sb2O7,Sr2Sb2O7_Va_O3,1.5038,-2.5705959062121213,2.013854602303889,1.7970500046544078,2.898909744080276,1,351,-0.5208045461292565,6.886168050776487
1422,Sr2SiO4,Sr2SiO4_Va_O1,4.5842,-3.422863758690476,1.8220442858075871,2.227516599873563,4.379611252012674,1,63,-2.356834901289411,8.505475112146867
1423,Sr2SiO4,Sr2SiO4_Va_O2,4.5842,-3.422863758690476,1.8141372600035992,2.1815756368674126,4.405964106888632,1,79,-2.356834901289411,8.55670638940976
1424,Sr2SiO4,Sr2SiO4_Va_O3,4.5842,-3.422863758690476,1.7630523901393695,2.2575793232741708,4.3864855376028355,1,95,-2.356834901289411,8.857948937383519
1425,Sr2SiO4,Sr2SiO4_Va_O4,4.5842,-3.422863758690476,1.9822723634755313,2.003378364216619,4.286948926266634,1,111,-2.356834901289411,7.779044420060947
1426,Sr2SnO4,Sr2SnO4_Va_O1,2.8567,-2.7861135097619045,1.6933973178721695,1.243837549095172,3.562827598372836,1,79,-1.538575818365933,7.7397681979101085
1427,Sr2SnO4,Sr2SnO4_Va_O2,2.8567,-2.7861135097619045,1.9692086761336776,2.139614610681748,2.812059506808933,1,95,-1.538575818365933,9.188272310832907
1428,Sr2SnO4,Sr2SnO4_Va_O3,2.8567,-2.7861135097619045,1.983597351297278,1.9553647811038304,3.072968388316651,1,111,-1.538575818365933,9.165865035081499
1429,Sr3(BO3)2,Sr3(BO3)2_Va_O1,4.5526,-3.2455647325757573,1.7979040067844871,2.360448655823145,4.503961406044599,1,65,-2.1905056483979153,8.6649863204034
1430,Sr3LiSbO6,Sr3LiSbO6_Va_O1,3.2918,-2.7778109675757583,1.6314690596991734,1.7724214107810354,3.2836212688143105,1,65,-0.5208045461292565,8.83946867813262
1431,Sr4As2O,Sr4As2O_Va_O1,1.0608,-1.7058687302380946,0.9630837637087896,3.072597349158513,3.493163433021462,1,125,-3.067823794114626,9.777718360971589
1433,SrAl2(SiO4)2,SrAl2(SiO4)2_Va_O1,4.713,-3.4431226516666653,2.554218117175958,2.1900283165736223,5.08469079448636,1,125,-2.356834901289411,7.432281630168499
1434,SrAl2(SiO4)2,SrAl2(SiO4)2_Va_O2,4.713,-3.4431226516666653,2.2101591313762072,2.7312975627248033,4.955411222303729,1,233,-2.356834901289411,8.550227598026554
1435,SrAl4O7,SrAl4O7_Va_O1,3.8043,-3.464532970555555,2.0686637973355024,3.3886414129236364,4.462355171027214,1,167,-2.8945619964631555,7.9148942845019725
1436,SrAl4O7,SrAl4O7_Va_O2,3.8043,-3.464532970555555,2.1085699467055883,2.2704895205259694,5.332717214659757,1,215,-2.8945619964631555,6.431531718992251
1437,SrAl4O7,SrAl4O7_Va_O3,3.8043,-3.464532970555555,1.937806108722431,2.331783423377374,5.232897097297659,1,287,-2.8945619964631555,7.198433459228888
1438,SrAl4O7,SrAl4O7_Va_O4,3.8043,-3.464532970555555,2.0585031471306294,2.344349601178077,4.889110569977683,1,263,-2.8945619964631555,6.529944638627582
1439,SrBe3O4,SrBe3O4_Va_O1,4.028600000000001,-3.1129027464583334,1.6533110910502504,2.5581943510658087,5.3322964149456,1,63,-3.067823794114626,10.412425645353787
1440,SrBe3O4,SrBe3O4_Va_O2,4.028600000000001,-3.1129027464583334,1.5282350663416238,1.7171848755800505,4.845848771972592,1,47,-3.067823794114626,8.355501542311659
1441,SrGa2B2O7,SrGa2B2O7_Va_O1,4.0775,-2.769393090833332,2.2230932647757946,4.065944714189673,3.6510753505709266,1,55,-1.8812876656363955,11.737117365146418
1442,SrGa2B2O7,SrGa2B2O7_Va_O2,4.0775,-2.769393090833332,2.0715789785851046,1.8267356589499184,3.563640916521716,1,91,-1.8812876656363955,7.241704071252528
1443,SrGa2B2O7,SrGa2B2O7_Va_O3,4.0775,-2.769393090833332,2.165847515895333,2.96473968899833,4.320860906549962,1,95,-1.8812876656363955,8.220840317329623
1444,SrGa2B2O7,SrGa2B2O7_Va_O4,4.0775,-2.769393090833332,2.4300912585032153,2.793130609574969,4.151232644404375,1,83,-1.8812876656363955,8.119684374258432
1445,SrGa4O7,SrGa4O7_Va_O1,2.5694999999999997,-2.5024807226388877,2.182301379140124,2.3339691379819514,3.1668980075662843,1,143,-1.8812876656363955,6.286763717138366
1446,SrGa4O7,SrGa4O7_Va_O2,2.5694999999999997,-2.5024807226388877,2.2095961790805183,2.3143721592175077,3.4426690155102726,1,191,-1.8812876656363955,6.223637550930445
1447,SrGa4O7,SrGa4O7_Va_O3,2.5694999999999997,-2.5024807226388877,2.044322650399085,2.234831930429887,3.555932644180799,1,287,-1.8812876656363955,6.952575013353426
1448,SrGa4O7,SrGa4O7_Va_O4,2.5694999999999997,-2.5024807226388877,2.1994684574528893,3.2233249975748306,2.782752362083424,1,263,-1.8812876656363955,7.351101365958885
1449,SrGePbO4,SrGePbO4_Va_O1,3.4394000000000005,-2.3839253838095233,2.228592646439861,2.31437235064919,2.3095158626795493,1,191,-1.1369603723458594,7.349590073717124
1450,SrGePbO4,SrGePbO4_Va_O2,3.4394000000000005,-2.3839253838095233,2.139793199731156,1.8399136821187208,2.754983433218575,1,239,-1.1369603723458594,7.3418890836932444
1451,SrGePbO4,SrGePbO4_Va_O3,3.4394000000000005,-2.3839253838095233,2.286921758507515,2.1805350707014504,2.4137775205051577,1,287,-1.1369603723458594,7.087526368606651
1452,SrGePbO4,SrGePbO4_Va_O4,3.4394000000000005,-2.3839253838095233,2.197940068845184,2.36503167400965,2.459749751957898,1,335,-1.1369603723458594,7.463789789653619
1453,SrIn2O4,SrIn2O4_Va_O1,1.8881000000000008,-2.357273833095238,1.975956619531696,1.8071453573751548,3.086452686865049,1,47,-1.5993795332042406,8.414530797562097
1454,SrIn2O4,SrIn2O4_Va_O2,1.8881000000000008,-2.357273833095238,1.9731408891390827,1.5315136840051684,3.058677510296918,1,59,-1.5993795332042406,8.816721409760925
1455,SrIn2O4,SrIn2O4_Va_O3,1.8881000000000008,-2.357273833095238,2.1229562814465397,1.4984038828330914,2.97111262184127,1,71,-1.5993795332042406,7.989737324854365
1456,SrIn2O4,SrIn2O4_Va_O4,1.8881000000000008,-2.357273833095238,2.0210026484402803,1.630761717052397,2.983042367525746,1,83,-1.5993795332042406,8.525169987449821
1457,SrLi2SiO4,SrLi2SiO4_Va_O1,4.6882,-3.0221305220833337,1.482926365398387,1.8266348316816623,4.724432843112982,1,161,-2.356834901289411,9.284961101737402
1458,SrLi2SiO4,SrLi2SiO4_Va_O2,4.6882,-3.0221305220833337,1.470910524122716,1.9269463357027872,4.745940758307882,1,215,-2.356834901289411,9.52745028752607
1459,SrLiBO3,SrLiBO3_Va_O1,4.4504,-2.9997611794444454,1.4591439551030227,2.6759944811907257,4.487418081070439,1,191,-2.1905056483979153,9.366888340815612
1460,SrLiBO3,SrLiBO3_Va_O2,4.4504,-2.9997611794444454,1.695933600275719,2.5661350527155924,4.482875067340848,1,183,-2.1905056483979153,8.90318277237432
1461,SrLiBO3,SrLiBO3_Va_O3,4.4504,-2.9997611794444454,1.5105340412527664,2.644823179286754,4.47538138829722,1,159,-2.1905056483979153,9.374989632023446
1462,SrO,SrO_Va_O1,3.1607000000000003,-3.077090665833333,0.9500000000000002,0.908791266440336,4.766171724526229,1,63,-3.067823794114626,10.455647588229251
1463,SrSn(BO3)2,SrSn(BO3)2_Va_O1,3.814599999999999,-2.8331703589999995,2.3137141771732708,2.7809334773488184,3.813141560096891,1,269,-1.538575818365933,8.017401857042907
1464,SrSnO3,SrSnO3_Va_O1,1.9664,-2.637945564833333,2.116172940657988,1.882989803022736,2.9704008788516383,1,287,-1.538575818365933,8.394890781692196
1465,SrSnO3,SrSnO3_Va_O2,1.9664,-2.637945564833333,2.1240512179988422,1.9014707125479116,2.958165338124002,1,359,-1.538575818365933,8.319674043297496
1466,Tl2SnO3,Tl2SnO3_Va_O2,1.0258000000000005,-1.5003471177777783,2.269492997378121,3.0497117872618964,2.1812197588204363,1,79,-0.8674893634033586,7.259729843659802
1467,Tl2SnO3,Tl2SnO3_Va_O3,1.0258000000000005,-1.5003471177777783,2.1350711302464656,2.7594583476664427,1.6543793343947744,1,95,-0.8674893634033586,6.551933446707559
1468,Tl6Si2O7,Tl6Si2O7_Va_O1,1.2203999999999997,-1.905314270666666,2.1098998001661045,3.5557461656266147,3.128913642018788,1,239,-0.8674893634033586,7.227384164165747
1469,Tl6Si2O7,Tl6Si2O7_Va_O3,1.2203999999999997,-1.905314270666666,2.0677458606441865,3.5593257985599083,3.1228439744029854,1,223,-0.8674893634033586,7.303040594737457
1470,TlSbO3,TlSbO3_Va_O1,2.3711,-1.7144332416666668,2.5046166686920737,3.2383319675300344,2.140484381720456,1,179,-0.5208045461292565,5.988263464409254
1471,Al2Ge2O7,Al2Ge2O7_Va_O1,3.2978,-2.702367327272727,2.406341895839076,3.103427181710611,-0.0150423495906109,2,191,-1.502819088333178,8.978846208475446
1472,Al2Ge2O7,Al2Ge2O7_Va_O2,3.2978,-2.702367327272727,2.3974576458626684,3.101687405729366,0.1390484039343733,2,255,-1.502819088333178,9.003316704304606
1473,Al2Ge2O7,Al2Ge2O7_Va_O4,3.2978,-2.702367327272727,2.6131783167219456,2.043769290199058,1.0379799850548563,2,351,-1.502819088333178,6.355127356099725
1474,Al2O3,Al2O3_Va_O1,6.039299999999999,-3.426551008000001,2.224895215865955,2.497321494687122,1.871706257271368,2,269,-2.8945619964631555,10.282703088187338
1475,Al2PbO4,Al2PbO4_Va_O1,3.8921,-2.89378359,2.273300437305284,2.391473835296565,1.5597349748155265,2,191,-1.1369603723458594,6.759401088167275
1476,Al2PbO4,Al2PbO4_Va_O2,3.8921,-2.89378359,2.2577006846753074,2.127479261236284,2.0772168677228207,2,239,-1.1369603723458594,6.631447912545502
1477,Al2PbO4,Al2PbO4_Va_O3,3.8921,-2.89378359,2.271189956610316,2.3477590408505455,1.6499347158008852,2,335,-1.1369603723458594,6.428958272437237
1478,Al4Bi2O9,Al4Bi2O9_Va_O1,2.6141999999999994,-2.857885394000002,2.3848563900027937,2.7629914986258335,0.0603303405355792,2,191,-0.9858147743813158,7.71622170503863
1479,Al4Bi2O9,Al4Bi2O9_Va_O2,2.6141999999999994,-2.857885394000002,2.2923045988216,2.525664865147771,1.4546189421473312,2,239,-0.9858147743813158,7.862173880733885
1480,Al4Bi2O9,Al4Bi2O9_Va_O3,2.6141999999999994,-2.857885394000002,2.3575196255115665,2.820929043431028,0.6232325467040618,2,359,-0.9858147743813158,6.933625784843771
1481,AlSbO4,AlSbO4_Va_O1,1.722599999999999,-2.5433669000000005,2.597103509660969,2.911445950223812,1.016020351947181,2,191,-0.5208045461292565,7.655444563366199
1482,AlSbO4,AlSbO4_Va_O2,1.722599999999999,-2.5433669000000005,2.672896490339031,3.6551000107041887,0.2390589483753902,2,159,-0.5208045461292565,7.110983042173892
1483,As2O3,As2O3_Va_O1,3.3312,-1.6290845505,2.745736482564582,3.6517666474416854,-0.9883017507957212,2,287,-1.150088447140494,7.552400983529943
1484,As2O3,As2O3_Va_O2,3.3312,-1.6290845505,2.6515650881606163,3.61912449772006,-1.9412796043358855,2,383,-1.150088447140494,7.081817293565289
1485,As2O3,As2O3_Va_O3,3.3312,-1.6290845505,2.6571443525075127,3.7018856453418607,-1.1966327609093488,2,479,-1.150088447140494,7.131939691002804
1486,As2Pb3O8,As2Pb3O8_Va_O1,3.2885999999999997,-1.7352351134615382,2.6860742046445267,2.7630077039862124,-1.5591657833297032,2,251,-0.6589084382122885,5.121768205399355
1487,As2Pb3O8,As2Pb3O8_Va_O2,3.2885999999999997,-1.7352351134615382,2.7042365259736325,2.9586236071888488,-1.7971430520194496,2,323,-0.6589084382122885,5.292227115333775