,formula,full_name,band_gap,formation_energy,nn_ave_eleneg,o2p_center_from_vbm,vacancy_formation_energy,charge
348,K6Si2O7,K6Si2O7_Va_O2,3.5319,-2.4870975168666662,1.294650795359,1.7793668779087084,6.392391709999979,0
349,K6Si2O7,K6Si2O7_Va_O3,3.5319,-2.4870975168666662,1.2739813815063414,1.7761314716497294,6.380189700000196,0
350,K6Si2O7,K6Si2O7_Va_O4,3.5319,-2.4870975168666662,1.2557634113310585,1.8032797918292611,6.447219470000059,0
351,KAsO2,KAsO2_Va_O1,3.7234,-1.893294109499999,2.0428502601032266,3.2521215720271996,4.401670849999968,0
352,KAsO2,KAsO2_Va_O2,3.7234,-1.893294109499999,1.588438492138496,2.063522492275746,3.475804520000006,0
353,KBO2,KBO2_Va_O1,4.124499999999999,-2.6493241330416666,1.808379796125676,4.31807050059917,6.284706359999982,0
354,KBiO2,KBiO2_Va_O1,1.6872000000000005,-1.7274063657499994,1.6909699068975024,2.182037568463405,4.066238960000087,0
355,KInO2,KInO2_Va_O1,2.1456,-1.91814239325,1.635850705304314,1.3579253909924716,4.494489600000074,0
356,KLi2BO3,KLi2BO3_Va_O1,4.11,-2.4615572841190474,1.2855047816897072,2.276321570608822,6.899784560000066,0
357,KLi2BO3,KLi2BO3_Va_O2,4.11,-2.4615572841190474,1.263958157242166,2.5014175908824923,7.141103179999968,0
358,KLi3PbO4,KLi3PbO4_Va_O1,1.5082999999999998,-1.8470879364444448,1.553457002119542,1.7256615262604709,3.167525650000025,0
359,KLi3PbO4,KLi3PbO4_Va_O2,1.5082999999999998,-1.8470879364444448,1.281159833024811,1.512911135104135,2.81457178000006,0
360,KLi3PbO4,KLi3PbO4_Va_O3,1.5082999999999998,-1.8470879364444448,1.2242356931611795,1.209322431491664,2.6541801700000267,0
361,KLi3PbO4,KLi3PbO4_Va_O4,1.5082999999999998,-1.8470879364444448,1.1896122047059587,1.1017051414130348,3.402882620000023,0
362,KLi6BiO6,KLi6BiO6_Va_O1,1.6239,-1.9866970273571427,1.2837101265080295,1.5655095265237282,3.86400562999996,0
363,KMgBO3,KMgBO3_Va_O1,4.4397,-2.7871217324444446,1.640229748755042,2.3109804950418784,6.820125110000058,0
364,KNa2GaO3,KNa2GaO3_Va_O1,2.6474,-1.935132645871921,1.1397465836804015,1.211066657191185,4.989876499999932,0
365,KNa2GaO3,KNa2GaO3_Va_O2,2.6474,-1.935132645871921,1.360742949064231,2.119627629136315,5.259106249999954,0
366,KNa2GaO3,KNa2GaO3_Va_O3,2.6474,-1.935132645871921,1.1333040014952391,1.2326162022518727,5.006974459999933,0
367,KNaGeO3,KNaGeO3_Va_O1,2.9851,-2.117326609925288,1.8437766363678552,2.9868647661268186,4.37897048000003,0
368,KNaGeO3,KNaGeO3_Va_O2,2.9851,-2.117326609925288,1.2895395253474982,1.5852786746896497,4.223059799999996,0
369,KNaGeO3,KNaGeO3_Va_O3,2.9851,-2.117326609925288,1.4978200683451948,1.417702878339132,3.8378607199999895,0
370,KSbO2,KSbO2_Va_O1,1.8589,-1.8866991319999995,1.802212692901336,2.920970269980452,4.4793254599998225,0
371,KSbO3,KSbO3_Va_O1,2.7925,-2.0533213286,2.2357932253282184,1.8010702005981054,4.3210081300000045,0
372,KTlO,KTlO_Va_O1,1.0755,-1.2013808837777784,1.3166777995745214,2.1122458826960884,3.7728499699999904,0
373,Li2BeSiO4,Li2BeSiO4_Va_O1,5.9582,-2.9697805114583327,1.5815138258799837,2.287370800501437,6.999505120000217,0
374,Li2BeSiO4,Li2BeSiO4_Va_O2,5.9582,-2.9697805114583327,1.5767993336371335,2.3139119668091293,6.992015780000097,0
375,Li2BeSiO4,Li2BeSiO4_Va_O3,5.9582,-2.9697805114583327,1.5467056727564814,2.3039801600180567,7.046757830000056,0
376,Li2BeSiO4,Li2BeSiO4_Va_O4,5.9582,-2.9697805114583327,1.5400985073205262,2.309044243359462,7.076675580000151,0
377,Li2CaGeO4,Li2CaGeO4_Va_O1,4.031000000000001,-2.6042605814583326,1.4902274727239526,1.8246241203870817,4.934452970000061,0
378,Li2GeO3,Li2GeO3_Va_O1,3.4576,-2.322119386944445,1.7564349653506546,2.991069972713284,4.615012139999985,0
379,Li2GeO3,Li2GeO3_Va_O2,3.4576,-2.322119386944445,1.3652047087203154,1.5468594223209264,4.147495839999928,0
380,Li2MgGeO4,Li2MgGeO4_Va_O1,3.7342,-2.5282078089583333,1.5074619169487726,1.6489551223037804,5.1041084300003465,0
381,Li2MgGeO4,Li2MgGeO4_Va_O2,3.7342,-2.5282078089583333,1.4572596274391074,1.6992928168756496,5.144730860000331,0
382,Li2MgGeO4,Li2MgGeO4_Va_O3,3.7342,-2.5282078089583333,1.5319867475206712,1.6171333775852283,5.076805540000246,0
383,Li2O,Li2O_Va_O1,4.8772,-2.061597913888889,0.98,1.168204519962669,7.427469659999995,0
384,Li2Si2O5,Li2Si2O5_Va_O1,5.181900000000001,-3.0159132185185182,1.4450636453115957,1.6605604586914726,6.351993590000243,0
385,Li2Si2O5,Li2Si2O5_Va_O2,5.181900000000001,-3.0159132185185182,2.5468374981907833,3.348491891953108,6.090730000000244,0
386,Li2Si2O5,Li2Si2O5_Va_O3,5.181900000000001,-3.0159132185185182,2.11392758697035,3.5481317001341894,6.377834020000032,0
387,Li2SiO3,Li2SiO3_Va_O1,5.1448,-2.882895587777778,1.7543676249109714,3.765117542940948,6.508511050000047,0
388,Li2SiO3,Li2SiO3_Va_O2,5.1448,-2.882895587777778,1.367848009345796,1.9439154367443665,6.448574930000072,0
389,Li2SnO3,Li2SnO3_Va_O1,3.2893,-2.2246867915277777,1.3884706258381867,1.800804626980335,5.028501769999943,0
390,Li2SnO3,Li2SnO3_Va_O2,3.2893,-2.2246867915277777,1.421818636299479,1.7373979170556284,4.801895669999917,0
391,Li2SnO3,Li2SnO3_Va_O3,3.2893,-2.2246867915277777,1.415499632138764,1.7283811814133587,4.833012629999994,0
392,Li3AsO4,Li3AsO4_Va_O1,4.2397,-2.270408983125,1.5169493855184373,1.9209146331378673,3.925070489999948,0
393,Li3AsO4,Li3AsO4_Va_O2,4.2397,-2.270408983125,1.4626668024848646,1.9366917382193185,3.9620100699999146,0
394,Li3AsO4,Li3AsO4_Va_O3,4.2397,-2.270408983125,1.471247625471115,1.951400765075329,3.9118312099999546,0
395,Li3BO3,Li3BO3_Va_O1,5.2981,-2.5554420863095233,1.309903996244476,2.4966280991303913,7.263640589999918,0
396,Li3BO3,Li3BO3_Va_O2,5.2981,-2.5554420863095233,1.2733264597235097,2.570793878591606,7.302907629999945,0
397,Li3BO3,Li3BO3_Va_O3,5.2981,-2.5554420863095233,1.2988153919415162,2.5575295415649366,7.33130466000001,0
398,Li3BiO4,Li3BiO4_Va_O1,1.5349,-1.884712245,1.2065973707119009,1.428675806726367,2.1706420599999863,0
399,Li3BiO4,Li3BiO4_Va_O2,1.5349,-1.884712245,1.6260762693038433,2.07351588992375,2.7981860999999615,0
400,Li3SbO4,Li3SbO4_Va_O1,3.2216999999999993,-2.2137175437499996,1.6490904880882649,2.4738478379801805,4.653637580000018,0
401,Li3SbO4,Li3SbO4_Va_O2,3.2216999999999993,-2.2137175437499996,1.249083567388437,1.5750525954426997,4.140833370000005,0
402,Li4Ca(BO3)2,Li4Ca(BO3)2_Va_O1,4.785500000000001,-2.778116286666667,1.340732269050028,2.4144545403935864,7.1585991099999635,0
403,Li4Ca(BO3)2,Li4Ca(BO3)2_Va_O2,4.785500000000001,-2.778116286666667,1.3057261438173848,2.4188471647073015,7.029524329999967,0
404,Li4Ca(BO3)2,Li4Ca(BO3)2_Va_O3,4.785500000000001,-2.778116286666667,1.4787474353863248,2.4910067969527896,7.210172189999989,0
405,Li4GeO4,Li4GeO4_Va_O1,4.0272,-2.2978871192592587,1.3868120812400504,1.7684252098683788,5.069368779999772,0
406,Li4GeO4,Li4GeO4_Va_O2,4.0272,-2.2978871192592587,1.3543613916205228,1.7241108942456838,5.180380769999724,0
407,Li4PbO4,Li4PbO4_Va_O1,1.3723,-1.919143204259259,1.3569145958822,1.4253715182763198,3.022171759999887,0
408,Li4PbO4,Li4PbO4_Va_O2,1.3723,-1.919143204259259,1.3792494173530598,1.3452002584233933,2.741590790000041,0
409,Li5BiO5,Li5BiO5_Va_O1,1.5062,-1.9488605756060613,1.203554022203606,1.7397699228723302,2.26976098000001,0
410,Li5BiO5,Li5BiO5_Va_O2,1.5062,-1.9488605756060613,1.540209613620437,2.2017752713403484,3.1586834099999894,0
411,Li5BiO5,Li5BiO5_Va_O3,1.5062,-1.9488605756060613,1.225025306062086,1.5569234638985447,2.2991671600000334,0
412,Li5SbO5,Li5SbO5_Va_O1,3.0783000000000005,-2.198206253787879,1.2491845381245323,1.9795843312888224,5.002255129999989,0
413,Li5SbO5,Li5SbO5_Va_O2,3.0783000000000005,-2.198206253787879,1.6322392020531835,2.5550155181691467,4.8999983500000415,0
414,Li5SbO5,Li5SbO5_Va_O3,3.0783000000000005,-2.198206253787879,1.2755332551970529,1.7738628893716877,4.800263109999955,0
415,Li8SnO6,Li8SnO6_Va_O1,4.0517,-2.1430056621111113,1.1728702208159925,1.3628324117250872,5.918599580000214,0
416,LiAlO2,LiAlO2_Va_O1,4.6288,-3.082882981458333,1.4296001480574805,1.921063569350896,7.037490029999967,0
417,LiAsO3,LiAsO3_Va_O1,3.650700000000001,-1.986835451666666,2.233158903361803,2.5089847451795455,4.2880212300000355,0
418,LiBO2,LiBO2_Va_O1,5.501,-2.7379905412500003,2.017867839658265,3.950952674776848,6.6961414100000045,0
419,LiBO2,LiBO2_Va_O2,5.501,-2.7379905412500003,1.380511775489672,2.1398734688602414,7.27266962000011,0
420,LiGaO2,LiGaO2_Va_O1,3.2567000000000004,-2.3788747770833334,1.5743574027522462,2.0062090249688924,5.0219176399999785,0
421,LiGaO2,LiGaO2_Va_O2,3.2567000000000004,-2.3788747770833334,1.5232149763392335,2.0266717357714397,5.0092752899999,0
422,LiGeBO4,LiGeBO4_Va_O1,4.3668,-2.4948268210714293,2.1423009090226213,2.7284502198952163,4.87529953999991,0
423,LiInGeO4,LiInGeO4_Va_O1,2.1927000000000003,-2.173107275119047,2.179260467474238,2.3440319972379275,4.404819460000008,0
424,LiInGeO4,LiInGeO4_Va_O2,2.1927000000000003,-2.173107275119047,1.9411984979021404,2.1485906027408217,3.863960669999992,0
425,LiInGeO4,LiInGeO4_Va_O3,2.1927000000000003,-2.173107275119047,1.9675439401673396,1.935897082154968,3.824830659999984,0
426,LiInO2,LiInO2_Va_O1,1.9281999999999997,-2.0632245620833327,1.4302139050490523,1.639714659382878,4.779716080000023,0
427,LiInSiO4,LiInSiO4_Va_O1,3.0281,-2.6540285472619045,2.1348981284626527,2.615830962606502,5.793107670000049,0
428,LiInSiO4,LiInSiO4_Va_O2,3.0281,-2.6540285472619045,1.9533932384269577,2.246415449729202,5.649649280000071,0
429,LiInSiO4,LiInSiO4_Va_O3,3.0281,-2.6540285472619045,1.9401956693506897,2.154711932666509,5.485765700000011,0
430,LiSb3O8,LiSb3O8_Va_O1,1.1262,-1.960145810277778,2.5763752285228496,2.7469254629996245,3.548756499999977,0
431,LiSb3O8,LiSb3O8_Va_O2,1.1262,-1.960145810277778,2.7927754650524235,3.559907060411964,4.805076799999947,0
432,LiSb3O8,LiSb3O8_Va_O3,1.1262,-1.960145810277778,2.5571000482100716,2.735852057888418,3.753090139999935,0
433,LiSb3O8,LiSb3O8_Va_O4,1.1262,-1.960145810277778,2.5187492582146556,2.795003904936185,3.961730699999984,0
434,LiSbO3,LiSbO3_Va_O1,2.3049999999999997,-2.118194097166666,2.185232051394197,2.4652643178020996,4.270184690000301,0
435,LiSbO3,LiSbO3_Va_O2,2.3049999999999997,-2.118194097166666,2.239950188964073,2.6229005923662303,4.159277680000182,0
436,Mg(GaO2)2,Mg(GaO2)2_Va_O1,2.6435999999999997,-2.5373796199999994,2.057437557842043,2.164471286507033,5.6557862899999325,0
437,Mg(GaO2)2,Mg(GaO2)2_Va_O2,2.6435999999999997,-2.5373796199999994,2.164791428412206,2.4422308896483296,5.611477139999929,0
438,Mg(SbO2)2,Mg(SbO2)2_Va_O1,2.3566000000000003,-2.1705149424999997,2.247257477502938,2.5266811950259194,4.938437779999967,0
439,Mg(SbO2)2,Mg(SbO2)2_Va_O2,2.3566000000000003,-2.1705149424999997,2.3913436234518324,3.5438403880333182,4.459129279999965,0
440,Mg(SbO3)2,Mg(SbO3)2_Va_O1,1.2204999999999997,-2.227293432222222,2.623422811678609,2.951558788863369,4.452067259999987,0
441,Mg(SbO3)2,Mg(SbO3)2_Va_O2,1.2204999999999997,-2.227293432222222,2.6181543766427833,2.9552288083076332,4.4524430099999766,0
442,Mg2GeO4,Mg2GeO4_Va_O1,3.2892,-2.729311635,2.054104618635752,1.9219571448136403,4.6922941199999375,0
443,Mg2GeO4,Mg2GeO4_Va_O2,3.2892,-2.729311635,1.988359071101306,2.036416461331928,5.010346599999943,0
444,Mg2GeO4,Mg2GeO4_Va_O3,3.2892,-2.729311635,2.000085437055408,2.560866760737587,4.642545649999997,0
445,Mg2SiO4,Mg2SiO4_Va_O1,4.7105,-3.2217519799999996,2.0246774317016203,2.240792191255425,6.759763320000056,0
446,Mg2SiO4,Mg2SiO4_Va_O2,4.7105,-3.2217519799999996,1.9624047356842675,2.4262009460250775,6.886883860000021,0
447,Mg2SiO4,Mg2SiO4_Va_O3,4.7105,-3.2217519799999996,1.978143668023242,2.739128908889802,6.721809379999977,0
448,Mg2SnO4,Mg2SnO4_Va_O1,2.6452,-2.6716233064285717,2.095557891012285,2.2622130596147794,5.525079079999964,0
449,Mg2SnO4,Mg2SnO4_Va_O2,2.6452,-2.6716233064285717,1.967551878218179,1.545521679732672,5.398928250000049,0
450,Mg3(AsO4)2,Mg3(AsO4)2_Va_O1,3.7674,-2.457165634230768,2.338025179654921,2.013496418375219,3.675441429999987,0
451,Mg3(AsO4)2,Mg3(AsO4)2_Va_O2,3.7674,-2.457165634230768,2.2844127882122516,2.3976041183048076,3.897180179999973,0
452,Mg3(AsO4)2,Mg3(AsO4)2_Va_O3,3.7674,-2.457165634230768,2.3589508755567294,2.0266475576627507,3.674535109999974,0
453,Mg3(AsO4)2,Mg3(AsO4)2_Va_O4,3.7674,-2.457165634230768,2.32432191979167,2.3127244859187024,3.5821218200000065,0
454,Mg3(BO3)2,Mg3(BO3)2_Va_O1,5.2993,-3.0366663284848485,1.9707507475268855,2.6416591668978153,7.367082699999978,0
455,Mg3(BO3)2,Mg3(BO3)2_Va_O2,5.2993,-3.0366663284848485,1.9277663201587751,2.850843494361607,7.330453509999993,0
456,MgAl2O4,MgAl2O4_Va_O1,5.2208,-3.374314229285714,2.023271694617387,2.037486965492664,7.489577900000208,0
457,MgAlBO4,MgAlBO4_Va_O1,6.1708,-3.1794655105952385,2.0794309741139076,2.457303791882284,7.468259460000022,0
458,MgAlBO4,MgAlBO4_Va_O2,6.1708,-3.1794655105952385,2.1534267881880895,2.973982215156041,7.76556210000002,0
459,MgAlBO4,MgAlBO4_Va_O3,6.1708,-3.1794655105952385,2.1190235037455056,2.974761815078296,7.295398410000084,0
460,MgGeO3,MgGeO3_Va_O1,2.3566000000000003,-2.560048076,2.4014902769604944,3.5800246206459025,4.4688539800000715,0
461,MgGeO3,MgGeO3_Va_O2,2.3566000000000003,-2.560048076,2.319051462619258,2.264710052985627,4.002119290000005,0
462,MgGeO3,MgGeO3_Va_O3,2.3566000000000003,-2.560048076,2.0764563078768257,2.732291460717855,4.630603889999984,0
463,MgO,MgO_Va_O1,4.6587,-3.0533666124999996,1.31,1.800415362880493,7.610649820000001,0
464,MgSn(BO3)2,MgSn(BO3)2_Va_O1,3.8378,-2.715067036333334,2.371666666666667,2.891234791700079,6.06596023999999,0
465,Na2BeB2O5,Na2BeB2O5_Va_O1,4.9742999999999995,-2.7277114356436787,1.65730608690873,2.517199382828254,7.243342409999864,0
466,Na2BeB2O5,Na2BeB2O5_Va_O2,4.9742999999999995,-2.7277114356436787,1.6104044454637272,2.3773495766865684,7.317229780000057,0
467,Na2BeB2O5,Na2BeB2O5_Va_O3,4.9742999999999995,-2.7277114356436787,2.026290733812957,3.633782413541698,6.4791334599998525,0
468,Na2BiO3,Na2BiO3_Va_O1,1.2405000000000004,-1.7307813988505751,1.465409178794349,2.5745459837687807,2.959808070000017,0
469,Na2BiO3,Na2BiO3_Va_O2,1.2405000000000004,-1.7307813988505751,1.4865120273157064,2.5802516950747725,2.5963391599999657,0
470,Na2BiO3,Na2BiO3_Va_O3,1.2405000000000004,-1.7307813988505751,1.4725749983626697,2.518970473609788,2.790446960000006,0
471,Na2GeO3,Na2GeO3_Va_O1,2.9417999999999997,-2.139358738850575,1.840543768294723,2.927860965346632,4.517056469999952,0
472,Na2GeO3,Na2GeO3_Va_O2,2.9417999999999997,-2.139358738850575,1.365304953105308,1.4611478420306878,4.221938589999931,0
473,Na2MgGeO4,Na2MgGeO4_Va_O1,3.2445999999999997,-2.382190906012931,1.533354860746701,1.5603384917226282,5.016360610000115,0
474,Na2MgGeO4,Na2MgGeO4_Va_O2,3.2445999999999997,-2.382190906012931,1.4920368630224898,1.611244233884411,5.115181539999989,0
475,Na2MgGeO4,Na2MgGeO4_Va_O3,3.2445999999999997,-2.382190906012931,1.5318908343383142,1.5386317011223445,5.020104889999979,0
476,Na2MgGeO4,Na2MgGeO4_Va_O4,3.2445999999999997,-2.382190906012931,1.4981705929595217,1.5944566503797444,5.111311409999994,0
477,Na2MgSiO4,Na2MgSiO4_Va_O1,3.8845,-2.807341548512931,1.5434786900483108,1.9345832075887304,6.6681857400000215,0
478,Na2MgSiO4,Na2MgSiO4_Va_O2,3.8845,-2.807341548512931,1.509652048946425,1.9706985650732225,6.732014080000122,0
479,Na2MgSiO4,Na2MgSiO4_Va_O3,3.8845,-2.807341548512931,1.5349604349221158,1.924140824990511,6.626281169999979,0
480,Na2MgSiO4,Na2MgSiO4_Va_O4,3.8845,-2.807341548512931,1.5091475872257534,1.9904116681323507,6.73465805000013,0
481,Na2PbO3,Na2PbO3_Va_O1,1.3852000000000002,-1.685241230933908,1.5578671564280668,1.287216116113615,3.5118434600000317,0
482,Na2PbO3,Na2PbO3_Va_O2,1.3852000000000002,-1.685241230933908,1.5448264821383595,1.3244149362231266,3.720592640000015,0
483,Na2PbO3,Na2PbO3_Va_O3,1.3852000000000002,-1.685241230933908,1.5622508021994184,1.3005316308390644,3.507689330000014,0
484,Na2Sb4O7,Na2Sb4O7_Va_O1,2.9387999999999996,-1.8557798171618032,2.051127537584742,2.788231272117096,4.5623656500000696,0
485,Na2Sb4O7,Na2Sb4O7_Va_O2,2.9387999999999996,-1.8557798171618032,2.392913981072047,2.92493481971893,4.564208150000136,0
486,Na2Sb4O7,Na2Sb4O7_Va_O3,2.9387999999999996,-1.8557798171618032,2.091654765961163,3.3025776457711866,4.198386270000023,0
487,Na2Sb4O7,Na2Sb4O7_Va_O4,2.9387999999999996,-1.8557798171618032,1.9446082369744648,2.7746603316008605,4.772936640000021,0
488,Na2SiO3,Na2SiO3_Va_O1,3.9955000000000007,-2.6992391030172413,1.855558496948309,3.681385195710336,6.465966139999987,0
489,Na2SiO3,Na2SiO3_Va_O2,3.9955000000000007,-2.6992391030172413,1.388390723489074,1.792391604112825,6.397889370000039,0
490,Na2SnO3,Na2SnO3_Va_O1,2.7495000000000003,-2.072807835933908,1.4911487521056277,1.4582995518409103,5.344908069999983,0
491,Na2SnO3,Na2SnO3_Va_O2,2.7495000000000003,-2.072807835933908,1.5086257672724364,1.4058614474089528,5.161102130000026,0
492,Na2SnO3,Na2SnO3_Va_O3,2.7495000000000003,-2.072807835933908,1.5036822579574365,1.392117409965449,5.1803528900000035,0
493,Na3AsO4,Na3AsO4_Va_O1,3.3761,-2.0528031474568964,1.5169268366869164,1.8565538228334355,3.9640783899999494,0
494,Na3AsO4,Na3AsO4_Va_O2,3.3761,-2.0528031474568964,1.5367031765163404,1.7974362153886294,3.8331289499999546,0
495,Na3AsO4,Na3AsO4_Va_O3,3.3761,-2.0528031474568964,1.506927484517736,1.8441806235112188,3.98508406999998,0
496,Na3BO3,Na3BO3_Va_O1,3.1534999999999997,-2.267062791974549,1.2791005784099043,2.5156331496583024,6.837499409999859,0
497,Na3BO3,Na3BO3_Va_O2,3.1534999999999997,-2.267062791974549,1.286527059552988,2.540594051134821,6.852747300000042,0
498,Na3BO3,Na3BO3_Va_O3,3.1534999999999997,-2.267062791974549,1.275167480053936,2.5076310503212467,6.787945609999847,0
499,Na3BeAl(SiO4)2,Na3BeAl(SiO4)2_Va_O1,4.4380999999999995,-2.980470083643678,1.8471761549408487,2.790443129075856,6.654092090000072,0
500,Na3BeAl(SiO4)2,Na3BeAl(SiO4)2_Va_O2,4.4380999999999995,-2.980470083643678,1.7295615398358943,2.170270650780994,6.733661070000048,0
501,Na3BeAl(SiO4)2,Na3BeAl(SiO4)2_Va_O3,4.4380999999999995,-2.980470083643678,1.7437640896550468,2.8485747131758306,6.707510999999963,0
502,Na3BeAl(SiO4)2,Na3BeAl(SiO4)2_Va_O4,4.4380999999999995,-2.980470083643678,1.6783995270293637,2.230243770555039,6.7080475399999475,0
503,Na3BiO3,Na3BiO3_Va_O1,2.9553000000000003,-1.7198474360221674,1.202518516146676,1.4271764364664796,4.460586569999927,0
504,Na3BiO4,Na3BiO4_Va_O1,1.1245999999999996,-1.7271877912068965,1.2504614512168737,1.1021086268478897,2.6519825899999976,0
505,Na3Ca2BiO6,Na3Ca2BiO6_Va_O1,1.6995999999999998,-2.2832010116379307,1.323744276820216,1.2933481692786652,3.712523059999862,0
506,Na3Ca2BiO6,Na3Ca2BiO6_Va_O2,1.6995999999999998,-2.2832010116379307,1.313010179808343,1.3131171741855656,3.5553433499998253,0
507,Na3SbO3,Na3SbO3_Va_O1,3.0228999999999995,-1.8600301767364535,1.233599171476406,2.1216840746030035,5.128975879999766,0
508,Na3SbO4,Na3SbO4_Va_O1,2.3398999999999996,-2.005708985581896,1.3280034752738212,1.3499101437245435,4.299767370000049,0
509,Na3SbO4,Na3SbO4_Va_O2,2.3398999999999996,-2.005708985581896,1.6896411543269056,2.389389527496937,4.801790419999984,0
510,Na3TlO2,Na3TlO2_Va_O1,1.8859,-1.3479438054980846,1.040080706544037,1.611030909279504,4.91480296000004,0
511,Na3TlO2,Na3TlO2_Va_O2,1.8859,-1.3479438054980846,1.156222978173973,1.9992228719371068,4.638003369999987,0
512,Na4As2O7,Na4As2O7_Va_O1,3.3173,-2.0155756674005305,1.7540649876880414,2.0233143153842033,3.1223831600000356,0
513,Na4As2O7,Na4As2O7_Va_O2,3.3173,-2.0155756674005305,1.6314853634769144,1.970287759152461,3.2559121500000945,0
514,Na4As2O7,Na4As2O7_Va_O3,3.3173,-2.0155756674005305,1.7084466627525752,1.8908815031685529,2.9202493600000796,0
515,Na4As2O7,Na4As2O7_Va_O4,3.3173,-2.0155756674005305,2.0912548118855763,3.4326418524122086,3.5251987300000653,0
516,Na4B2O5,Na4B2O5_Va_O1,3.931799999999999,-2.4025234576854757,1.845713900961803,3.866771063003552,6.625256120000026,0
517,Na4B2O5,Na4B2O5_Va_O2,3.931799999999999,-2.4025234576854757,1.3517104707823588,2.316185256690084,7.033295329999996,0
518,Na4B2O5,Na4B2O5_Va_O3,3.931799999999999,-2.4025234576854757,1.3406295346177046,2.372462851852311,7.080014799999967,0