,formula,full_name,band_gap,formation_energy,nn_ave_eleneg,o2p_center_from_vbm,vacancy_formation_energy,charge,vr_max
303,Na3BO3,Na3BO3_Va_O1,3.1534999999999997,-2.267062791974549,1.2791005784099043,2.5156331496583024,6.837499409999859,0,-10.579626362547897
304,Na3BO3,Na3BO3_Va_O2,3.1534999999999997,-2.267062791974549,1.286527059552988,2.540594051134821,6.852747300000042,0,-10.579626362547897
305,Na3BO3,Na3BO3_Va_O3,3.1534999999999997,-2.267062791974549,1.275167480053936,2.5076310503212467,6.787945609999847,0,-10.579626362547897
306,Na3BiO3,Na3BiO3_Va_O1,2.9553000000000003,-1.7198474360221674,1.202518516146676,1.4271764364664796,4.460586569999927,0,-8.025954701436781
307,Na3BiO4,Na3BiO4_Va_O1,1.1245999999999996,-1.7271877912068965,1.2504614512168737,1.1021086268478897,2.6519825899999976,0,-6.908751164827586
308,Na3SbO3,Na3SbO3_Va_O1,3.0228999999999995,-1.8600301767364535,1.233599171476406,2.1216840746030035,5.128975879999766,0,-8.680140824770117
309,Na3SbO4,Na3SbO4_Va_O1,2.3398999999999996,-2.005708985581896,1.3280034752738212,1.3499101437245435,4.299767370000049,0,-8.022835942327584
310,Na3SbO4,Na3SbO4_Va_O2,2.3398999999999996,-2.005708985581896,1.6896411543269056,2.389389527496937,4.801790419999984,0,-8.022835942327584
311,Na3TlO2,Na3TlO2_Va_O1,1.8859,-1.3479438054980846,1.040080706544037,1.611030909279504,4.91480296000004,0,-8.087662832988507
312,Na3TlO2,Na3TlO2_Va_O2,1.8859,-1.3479438054980846,1.156222978173973,1.9992228719371068,4.638003369999987,0,-8.087662832988507
313,Na4As2O7,Na4As2O7_Va_O1,3.3173,-2.0155756674005305,1.7540649876880414,2.0233143153842033,3.1223831600000356,0,-6.550620919051724
314,Na4As2O7,Na4As2O7_Va_O2,3.3173,-2.0155756674005305,1.6314853634769144,1.970287759152461,3.2559121500000945,0,-6.550620919051724
315,Na4As2O7,Na4As2O7_Va_O3,3.3173,-2.0155756674005305,1.7084466627525752,1.8908815031685529,2.9202493600000796,0,-6.550620919051724
316,Na4As2O7,Na4As2O7_Va_O4,3.3173,-2.0155756674005305,2.0912548118855763,3.4326418524122086,3.5251987300000653,0,-6.550620919051724
317,Na4B2O5,Na4B2O5_Va_O1,3.931799999999999,-2.4025234576854757,1.845713900961803,3.866771063003552,6.625256120000026,0,-7.928327410362069
318,Na4B2O5,Na4B2O5_Va_O2,3.931799999999999,-2.4025234576854757,1.3517104707823588,2.316185256690084,7.033295329999996,0,-7.928327410362069
319,Na4B2O5,Na4B2O5_Va_O3,3.931799999999999,-2.4025234576854757,1.3406295346177046,2.372462851852311,7.080014799999967,0,-7.928327410362069
320,Na4GeO4,Na4GeO4_Va_O1,2.8884999999999996,-2.0175675590229885,1.2264580719633678,1.4259876648008478,4.8971426500001005,0,-11.34881751950431
321,Na4GeO4,Na4GeO4_Va_O2,2.8884999999999996,-2.0175675590229885,1.2117565074226204,1.4357606009606547,5.011667060000159,0,-11.34881751950431
322,Na4GeO4,Na4GeO4_Va_O3,2.8884999999999996,-2.0175675590229885,1.2368473420196695,1.44457099810889,4.922840820000042,0,-11.34881751950431
323,Na4GeO4,Na4GeO4_Va_O4,2.8884999999999996,-2.0175675590229885,1.3449276547576416,1.4199232606298169,4.630482240000115,0,-11.34881751950431
324,Na4PbO4,Na4PbO4_Va_O1,1.2815,-1.610200159578544,1.2323834548105834,1.066186482334869,2.74896658000001,0,-9.057375897629308
325,Na4PbO4,Na4PbO4_Va_O2,1.2815,-1.610200159578544,1.2246366108679725,1.0451122066586036,2.725313049999963,0,-9.057375897629308
326,Na4PbO4,Na4PbO4_Va_O3,1.2815,-1.610200159578544,1.214450048156124,1.0536682905084844,2.75807702999999,0,-9.057375897629308
327,Na4PbO4,Na4PbO4_Va_O4,1.2815,-1.610200159578544,1.4285521221202382,1.1685431877800525,2.288921259999947,0,-9.057375897629308
328,Na4SiO4,Na4SiO4_Va_O1,3.3997,-2.3901058923563228,1.2509857988408335,1.7846678399703702,6.588761620000136,0,-13.444345644504315
329,Na4SiO4,Na4SiO4_Va_O2,3.3997,-2.3901058923563228,1.2277981386290096,1.806239720956594,6.670062450000055,0,-13.444345644504315
330,Na4SiO4,Na4SiO4_Va_O3,3.3997,-2.3901058923563228,1.2592779405693129,1.8281771317708524,6.619674010000049,0,-13.444345644504315
331,Na4SiO4,Na4SiO4_Va_O4,3.3997,-2.3901058923563228,1.3437535379992207,1.7779377187172276,6.424721190000023,0,-13.444345644504315
332,Na4SnO3,Na4SnO3_Va_O1,1.8379000000000003,-1.657075410775862,1.1969717726681846,2.239801726413944,5.2327277900000215,0,-11.047169405172415
333,Na4SnO3,Na4SnO3_Va_O2,1.8379000000000003,-1.657075410775862,1.177413117691618,2.0246583033282284,5.14473260000012,0,-11.047169405172415
334,Na4SnO3,Na4SnO3_Va_O3,1.8379000000000003,-1.657075410775862,1.1663906719867578,1.9981502611153077,5.0984747999999716,0,-11.047169405172415
335,Na4SnO4,Na4SnO4_Va_O1,2.1317,-1.8676039212452116,1.1892804405561148,1.1507983414686145,4.079619819999957,0,-10.505272057004316
336,Na4SnO4,Na4SnO4_Va_O2,2.1317,-1.8676039212452116,1.165292343016625,1.154792715987451,4.134188939999953,0,-10.505272057004316
337,Na4SnO4,Na4SnO4_Va_O3,2.1317,-1.8676039212452116,1.1727474765695347,1.1440239344205128,4.070681170000066,0,-10.505272057004316
338,Na4SnO4,Na4SnO4_Va_O4,2.1317,-1.8676039212452116,1.3216859107307752,1.1784431761226957,3.656326720000047,0,-10.505272057004316
339,Na6PbO5,Na6PbO5_Va_O1,1.1032,-1.5700874682758617,1.349658804960484,1.508565196276811,3.696000540000009,0,-13.188734733517238
340,Na6PbO5,Na6PbO5_Va_O2,1.1032,-1.5700874682758617,1.2844735360975492,1.280438359370244,3.795047200000008,0,-13.188734733517238
341,NaAlO2,NaAlO2_Va_O1,3.9174,-2.933970703512931,1.5016528031852792,1.7853031428518185,6.998969500000053,0,-11.735882814051724
342,NaAlO2,NaAlO2_Va_O2,3.9174,-2.933970703512931,1.530096251693467,1.726511145169398,6.918318899999926,0,-11.735882814051724
343,NaBO2,NaBO2_Va_O1,4.1874,-2.612621758929598,1.800791350867429,4.794958586711842,6.102864149999968,0,-10.450487035718393
344,NaBO2,NaBO2_Va_O2,4.1874,-2.612621758929598,1.507964346670368,2.448975321494773,7.027633270000033,0,-10.450487035718393
345,NaBiO2,NaBiO2_Va_O1,0.8683999999999994,-1.7202619228879303,1.6366443656571326,2.7247514926830427,4.0020247000000015,0,-6.881047691551721
346,NaBiO3,NaBiO3_Va_O1,1.226,-1.584092498310345,2.1500412786154803,1.5134699260394022,2.1512824200000384,0,-7.920462491551725
347,NaGaO2,NaGaO2_Va_O1,2.9321,-2.2214824766379304,1.5959280894452252,1.7539251355139929,4.927023199999789,0,-8.885929906551722
348,NaGaO2,NaGaO2_Va_O2,2.9321,-2.2214824766379304,1.5658864972153843,1.7928204070167568,5.038493759999833,0,-8.885929906551722
349,NaInO2,NaInO2_Va_O1,2.0346,-1.9855354266379308,1.4896520697887778,1.4689325051693,4.776153229999986,0,-7.942141706551723
350,NaSbO3,NaSbO3_Va_O1,2.8378,-2.0606511693103453,2.18834731319333,1.829437473272837,4.3775729500001805,0,-10.303255846551727
351,Pb3O4,Pb3O4_Va_O1,1.0928999999999998,-1.446981154285714,2.7125491166580247,2.4452465098536926,2.951714230000002,0,-1.2661085099999998
352,Pb3O4,Pb3O4_Va_O2,1.0928999999999998,-1.446981154285714,2.7179617029831618,2.526718446962329,3.009804059999974,0,-1.2661085099999998
353,Rb2Be2O3,Rb2Be2O3_Va_O1,2.4254,-2.377723397857143,1.3186439947914728,2.264499680717455,6.707784469999874,0,-8.3220318925
354,Rb2Be2O3,Rb2Be2O3_Va_O2,2.4254,-2.377723397857143,1.3098038993263637,2.3666260707242195,7.1476963799999655,0,-8.3220318925
355,Rb2CeO3,Rb2CeO3_Va_O1,2.7647000000000004,-2.7078352658333342,1.3460816284187862,1.2315831392512286,4.575105469999821,0,-8.123505797500002
356,Rb2CeO3,Rb2CeO3_Va_O2,2.7647000000000004,-2.7078352658333342,1.3443625233666276,1.209487160859462,4.531084509999696,0,-8.123505797500002
357,Rb2MgO2,Rb2MgO2_Va_O1,2.5014000000000003,-1.9070924115,1.0564066381675623,1.1061368225352242,6.16237320999995,0,-4.76773102875
358,Rb2O,Rb2O_Va_O1,1.4732,-1.133168373333333,0.82,0.3969127188451622,4.461725070000009,0,-1.6997525599999996
359,Rb2Pb2O3,Rb2Pb2O3_Va_O1,1.6844,-1.539362617142857,1.6705273842002886,2.3156563089413096,4.134989309999932,0,-5.3877691599999995
360,Rb2PbO2,Rb2PbO2_Va_O2,1.8371,-1.499867704999999,1.5562767872176382,1.9460636008394605,4.12975662999987,0,-5.6245038937499965
361,Rb2PbO2,Rb2PbO2_Va_O3,1.8371,-1.499867704999999,1.2416992022539106,1.2687788231105346,4.4865454799997995,0,-5.6245038937499965
362,Rb2PbO2,Rb2PbO2_Va_O4,1.8371,-1.499867704999999,1.65477550972542,1.8747073643696075,4.0796532799998975,0,-5.6245038937499965
363,Rb2PbO3,Rb2PbO3_Va_O2,1.3140999999999998,-1.5558054725000003,1.512566128673175,0.824836430678038,1.954460719999938,0,-4.667416417500001
364,Rb2Sn2O3,Rb2Sn2O3_Va_O1,0.9453999999999998,-1.7204352542857149,1.6478351694372932,3.5201396409054064,4.735854819999995,0,-6.021523390000002
365,Rb2SnO2,Rb2SnO2_Va_O1,2.239,-1.6441546475000002,1.6389673388076338,2.815253649531358,4.6254747100000575,0,-6.165579928125001
366,Rb2SnO2,Rb2SnO2_Va_O2,2.239,-1.6441546475000002,1.2059172084529577,1.8505156376234224,4.986553820000049,0,-6.165579928125001
367,Rb2SnO3,Rb2SnO3_Va_O1,2.2715,-1.923212555,1.6808750108243984,1.95237329003421,4.523463749999687,0,-5.769637665
368,Rb2SnO3,Rb2SnO3_Va_O2,2.2715,-1.923212555,1.4050702572516909,0.9654521921931688,3.550404869999861,0,-5.769637665
369,Rb3AlO3,Rb3AlO3_Va_O1,2.8213,-2.192958231785714,1.1030633211895935,1.0623130519345072,6.206774539999978,0,-10.233805081666667
370,Rb3AlO3,Rb3AlO3_Va_O2,2.8213,-2.192958231785714,1.3077788944130129,2.0319298353912956,6.547884360000021,0,-10.233805081666667
371,Rb3BiO3,Rb3BiO3_Va_O1,3.1835,-1.6211958614285713,1.2368454618170004,1.193738065945551,4.205223209999881,0,-7.565580686666666
372,Rb3GaO3,Rb3GaO3_Va_O1,2.5813,-1.829943027142856,1.3586028396255856,1.9188954109317824,5.150004670000053,0,-8.53973412666666
373,Rb3GaO3,Rb3GaO3_Va_O2,2.5813,-1.829943027142856,1.1253175271645046,1.1116290921680183,4.965271909999965,0,-8.53973412666666
374,Rb3InO3,Rb3InO3_Va_O1,1.9467,-1.6420714696428569,1.067479041082411,0.7459525592720849,3.727990780000036,0,-7.663000191666665
375,Rb3InO3,Rb3InO3_Va_O2,1.9467,-1.6420714696428569,1.275996888690673,1.512729800600991,4.136471649999985,0,-7.663000191666665
376,Rb3InO3,Rb3InO3_Va_O3,1.9467,-1.6420714696428569,1.0834265971813364,0.6967453819358194,3.61898856,0,-7.663000191666665
377,Rb3SbO3,Rb3SbO3_Va_O1,3.1791,-1.780475274285715,1.278245702464094,1.712103368442821,4.6617412500001,0,-8.308884613333337
378,Rb3TlO3,Rb3TlO3_Va_O1,1.5343999999999998,-1.3742784501190477,1.0405368336763197,0.8603491913254215,2.52481715999995,0,-6.413299433888889
379,Rb3TlO3,Rb3TlO3_Va_O2,1.5343999999999998,-1.3742784501190477,1.2046730369938634,1.4109851689396835,2.958439589999964,0,-6.413299433888889
380,Rb3TlO3,Rb3TlO3_Va_O3,1.5343999999999998,-1.3742784501190477,1.0201421598319538,0.931669723709982,2.607465979999981,0,-6.413299433888889
381,Rb4PbO4,Rb4PbO4_Va_O1,1.6033,-1.527302656666666,1.3070720157688454,0.9979510856281404,2.4869681399999397,0,-8.591077443749997
382,Rb4PbO4,Rb4PbO4_Va_O2,1.6033,-1.527302656666666,1.22157927460758,0.8826131327184692,2.9218927599998867,0,-8.591077443749997
383,Rb4PbO4,Rb4PbO4_Va_O3,1.6033,-1.527302656666666,1.2601228870887389,0.95673797522315,2.7393282399999723,0,-8.591077443749997
384,Rb4PbO4,Rb4PbO4_Va_O4,1.6033,-1.527302656666666,1.2392494475657276,0.9434678655128452,2.6245563899998476,0,-8.591077443749997
385,Rb4SnO3,Rb4SnO3_Va_O1,1.7874,-1.5217606543749995,1.1747528504536422,1.894352379655548,4.902956429999799,0,-10.145071029166663
386,Rb4SnO3,Rb4SnO3_Va_O2,1.7874,-1.5217606543749995,1.1883874647645265,1.9674810029997856,4.968543149999855,0,-10.145071029166663
387,Rb4SnO3,Rb4SnO3_Va_O3,1.7874,-1.5217606543749995,1.177163951099402,1.86705331015707,4.880791679999797,0,-10.145071029166663
388,Rb4SnO4,Rb4SnO4_Va_O1,2.2470999999999997,-1.7707643350000004,1.2535575408013142,1.126526894597595,3.781155909999947,0,-9.960549384375001
389,Rb4SnO4,Rb4SnO4_Va_O2,2.2470999999999997,-1.7707643350000004,1.177260316119254,1.0449651115135987,4.168812089999969,0,-9.960549384375001
390,Rb4SnO4,Rb4SnO4_Va_O3,2.2470999999999997,-1.7707643350000004,1.2171300794874034,1.109757744027597,3.964887650000159,0,-9.960549384375001
391,Rb4SnO4,Rb4SnO4_Va_O4,2.2470999999999997,-1.7707643350000004,1.1979440958840029,1.0817809391754487,3.8824074400000743,0,-9.960549384375001
392,Rb6Si2O7,Rb6Si2O7_Va_O1,3.3157999999999994,-2.4265757626666664,1.2846846109124377,1.886047280338284,6.435236069999869,0,-10.39961041142857
393,Rb6Si2O7,Rb6Si2O7_Va_O2,3.3157999999999994,-2.4265757626666664,1.8430506074296524,3.551416424212495,6.5705837800000015,0,-10.39961041142857
394,Rb6Si2O7,Rb6Si2O7_Va_O3,3.3157999999999994,-2.4265757626666664,1.3205817195285865,1.855323133603911,6.380475519999786,0,-10.39961041142857
395,Rb6Si2O7,Rb6Si2O7_Va_O4,3.3157999999999994,-2.4265757626666664,1.3013686485182614,1.8455291388056272,6.356189489999801,0,-10.39961041142857
396,RbAsO2,RbAsO2_Va_O1,3.8234,-1.8659498662499991,2.047080228348106,3.189099695784902,4.486262959999872,0,-7.463799464999997
397,RbAsO2,RbAsO2_Va_O2,3.8234,-1.8659498662499991,1.6025355494432765,2.0620363302223153,4.542627859999934,0,-7.463799464999997
398,RbBO2,RbBO2_Va_O1,4.0156,-2.622254900833333,1.3946434677834016,2.1753724478080345,7.063651139999942,0,-10.489019603333332
399,RbBO2,RbBO2_Va_O2,4.0156,-2.622254900833333,1.8228153017123696,4.178610917163613,6.264447139999911,0,-10.489019603333332
400,RbBiO2,RbBiO2_Va_O1,1.9585999999999997,-1.694015584374999,1.730540124449983,2.079345563157339,4.020724320000008,0,-6.776062337499996
401,RbSbO2,RbSbO2_Va_O1,2.1201,-1.864373579375,1.8388526718097649,2.848037453621166,4.43810836000001,0,-7.4574943175
402,RbTlO,RbTlO_Va_O1,1.1948,-1.1706777986111103,1.324218627261024,1.9929550085561316,3.7769892399999865,0,-3.512033395833331
403,Sb2O3,Sb2O3_Va_O1,1.842700000000001,-1.751737502,2.544741242141955,3.479270991356791,4.168888170000011,0,-1.4597812516666666
404,Sb2O3,Sb2O3_Va_O2,1.842700000000001,-1.751737502,2.659676891928514,3.6453132200419622,4.23347437999997,0,-1.4597812516666666
405,Sb2PbO6,Sb2PbO6_Va_O1,1.8615999999999993,-1.900305225555556,2.791666666666667,3.264053158069724,4.266536340000025,0,-4.275686757500001
406,SbAsO3,SbAsO3_Va_O1,3.257,-1.6997547515000004,2.6617779987008463,3.233004375837125,4.052682010000021,0,-2.832924585833334
407,SbAsO3,SbAsO3_Va_O2,3.257,-1.6997547515000004,2.5758892938962794,3.120973725974879,4.062129160000049,0,-2.832924585833334
408,SbAsO3,SbAsO3_Va_O3,3.257,-1.6997547515000004,2.6776114751845843,3.238784307377601,3.8405594299999937,0,-2.832924585833334
409,SbO2,SbO2_Va_O1,1.9910000000000003,-1.8374915029166672,2.753462220133361,3.5862978926169973,4.408735470000019,0,-1.3781186271875003
410,SbO2,SbO2_Va_O2,1.9910000000000003,-1.8374915029166672,2.77530143852667,3.1481668558711764,4.01743338999996,0,-1.3781186271875003
411,SbO2,SbO2_Va_O3,1.9910000000000003,-1.8374915029166672,2.741856431286207,3.451624902571632,4.160002620000009,0,-1.3781186271875003
412,SbO2,SbO2_Va_O4,1.9910000000000003,-1.8374915029166672,2.75205610645959,3.0107401268739453,3.761671020000003,0,-1.3781186271875003
413,SiO2,SiO2_Va_O1,5.785699999999999,-3.267179193333333,2.67,2.858249381991186,5.84099236999999,0,-2.4503843949999995
414,Sn5O6,Sn5O6_Va_O1,1.415,-1.7621987818181832,2.4539480703817205,3.7688308015080825,4.767490980000057,0,-1.6153488833333345
415,Sn5O6,Sn5O6_Va_O2,1.415,-1.7621987818181832,2.6357856065939984,3.6674763726434176,4.971552149999988,0,-1.6153488833333345
416,Sn5O6,Sn5O6_Va_O3,1.415,-1.7621987818181832,2.39053715812208,3.6820594344213857,4.4522977500000795,0,-1.6153488833333345
417,SnB4O7,SnB4O7_Va_O1,3.4541000000000004,-2.6146258118055554,2.4866818536794777,4.7280040897409,7.306844840000062,0,-11.205539193452381
418,SnB4O7,SnB4O7_Va_O2,3.4541000000000004,-2.6146258118055554,2.3909703478304167,5.7315294788507956,7.681961060000171,0,-11.205539193452381
419,SnB4O7,SnB4O7_Va_O3,3.4541000000000004,-2.6146258118055554,2.4263919365401607,4.843565196622258,6.986340179999965,0,-11.205539193452381
420,SnB4O7,SnB4O7_Va_O4,3.4541000000000004,-2.6146258118055554,2.4685555713397687,4.650600397134114,6.595873240000069,0,-11.205539193452381
421,SnO2,SnO2_Va_O1,0.8614000000000002,-2.107481543333334,2.6999999999999997,2.689198165456612,4.78985756999999,0,-1.5806111575000004
422,Sr(AsO3)2,Sr(AsO3)2_Va_O1,3.4882999999999997,-2.233057519074074,2.605,2.4830881013655195,4.617377530000008,0,-10.048758835833333
423,Sr(BO2)2,Sr(BO2)2_Va_O1,4.9695,-3.1235381182142854,2.0343749131611357,2.1615546231003835,7.1470932200001105,0,-10.93238341375
424,Sr(BO2)2,Sr(BO2)2_Va_O2,4.9695,-3.1235381182142854,2.212165616451734,4.007286451289397,6.446952359999964,0,-10.93238341375
425,Sr(BiO2)2,Sr(BiO2)2_Va_O1,2.4357,-2.1114339966666664,2.324548257724588,2.5410450963922,3.693859309999775,0,-7.390018988333333
426,Sr(BiO2)2,Sr(BiO2)2_Va_O2,2.4357,-2.1114339966666664,2.029107554714632,1.6113191240651374,3.728578889999776,0,-7.390018988333333
427,Sr(BiO2)2,Sr(BiO2)2_Va_O3,2.4357,-2.1114339966666664,1.9921489585095735,1.479765478436082,4.22955231000004,0,-7.390018988333333
428,Sr(BiO2)2,Sr(BiO2)2_Va_O4,2.4357,-2.1114339966666664,2.4698862172393645,2.4288303816261245,4.060117590000013,0,-7.390018988333333
429,Sr(SbO3)2,Sr(SbO3)2_Va_O1,2.9061999999999997,-2.3865939085185186,2.561666666666667,2.035490482256219,4.463854070000034,0,-10.739672588333335
430,Sr2CeO4,Sr2CeO4_Va_O2,2.8113,-3.4935232297619043,1.6160149065174287,1.3414551932417476,5.72537125999987,0,-9.170498478125
431,Sr2GeO4,Sr2GeO4_Va_O1,3.5318999999999994,-2.9120691372619047,2.0119919774690533,1.7370118308883735,4.227263049999928,0,-7.6441814853125
432,Sr2GeO4,Sr2GeO4_Va_O2,3.5318999999999994,-2.9120691372619047,1.801454504713544,1.8924632325639064,4.824244809999991,0,-7.6441814853125
433,Sr2GeO4,Sr2GeO4_Va_O3,3.5318999999999994,-2.9120691372619047,1.84635061077502,1.8548873432259887,4.750340049999986,0,-7.6441814853125
434,Sr2GeO4,Sr2GeO4_Va_O4,3.5318999999999994,-2.9120691372619047,1.849858733985163,1.9675209191440468,4.6458462900000175,0,-7.6441814853125
435,Sr2PbO4,Sr2PbO4_Va_O1,1.4673000000000005,-2.466891851190476,1.8333932892028373,1.2909229458646654,3.5028222400000093,0,-6.475591109374999
436,Sr2Sb2O7,Sr2Sb2O7_Va_O1,1.5038,-2.5705959062121213,2.459055399322205,2.6840017410813624,4.252368809999902,0,-7.069138742083334
437,Sr2Sb2O7,Sr2Sb2O7_Va_O2,1.5038,-2.5705959062121213,2.4560691981034015,2.865612737955333,4.531309609999775,0,-7.069138742083334
438,Sr2Sb2O7,Sr2Sb2O7_Va_O3,1.5038,-2.5705959062121213,2.013854602303889,1.7970500046544078,4.075847940000026,0,-7.069138742083334
439,Sr2SiO4,Sr2SiO4_Va_O1,4.5842,-3.422863758690476,1.8220442858075871,2.227516599873563,6.618549609999954,0,-8.9850173665625
440,Sr2SiO4,Sr2SiO4_Va_O2,4.5842,-3.422863758690476,1.8141372600035992,2.1815756368674126,6.662818860000025,0,-8.9850173665625
441,Sr2SiO4,Sr2SiO4_Va_O3,4.5842,-3.422863758690476,1.7630523901393695,2.2575793232741708,6.732053009999968,0,-8.9850173665625
442,Sr2SiO4,Sr2SiO4_Va_O4,4.5842,-3.422863758690476,1.9822723634755313,2.003378364216619,6.401802409999968,0,-8.9850173665625
443,Sr2SnO4,Sr2SnO4_Va_O1,2.8567,-2.7861135097619045,1.6933973178721695,1.243837549095172,5.170144650000006,0,-7.313547963125
444,Sr2SnO4,Sr2SnO4_Va_O2,2.8567,-2.7861135097619045,1.9692086761336776,2.139614610681748,4.831907209999949,0,-7.313547963125
445,Sr2SnO4,Sr2SnO4_Va_O3,2.8567,-2.7861135097619045,1.983597351297278,1.9553647811038304,5.074544049999995,0,-7.313547963125
446,Sr3(BO3)2,Sr3(BO3)2_Va_O1,4.5526,-3.2455647325757573,1.7979040067844871,2.360448655823145,7.177416160000016,0,-7.437752512152778
447,SrAl4O7,SrAl4O7_Va_O1,3.8043,-3.464532970555555,2.0686637973355024,3.3886414129236364,7.318220550000101,0,-20.78719782333333
448,SrAl4O7,SrAl4O7_Va_O2,3.8043,-3.464532970555555,2.1085699467055883,2.2704895205259694,6.7302501699999855,0,-20.78719782333333
449,SrAl4O7,SrAl4O7_Va_O3,3.8043,-3.464532970555555,1.937806108722431,2.331783423377374,6.961667209999982,0,-20.78719782333333
450,SrAl4O7,SrAl4O7_Va_O4,3.8043,-3.464532970555555,2.0585031471306294,2.344349601178077,6.7579584300000395,0,-20.78719782333333
451,SrBe3O4,SrBe3O4_Va_O1,4.028600000000001,-3.1129027464583334,1.6533110910502504,2.5581943510658087,8.216058770000027,0,-12.451610985833334
452,SrBe3O4,SrBe3O4_Va_O2,4.028600000000001,-3.1129027464583334,1.5282350663416238,1.7171848755800505,7.541207660000007,0,-12.451610985833334