,formula,full_name,band_gap,formation_energy,nn_ave_eleneg,o2p_center_from_vbm,vacancy_formation_energy,charge,vacancy_index,vr_max,Eb_sum
964,Cs2Li2SiO4,Cs2Li2SiO4_Va_O3,4.0485,-2.471690085836526,1.2614680654511172,2.211409682046513,4.735058686766263,1,287,-1.793018636425102,9.770873308456135
965,Cs2Li2SiO4,Cs2Li2SiO4_Va_O4,4.0485,-2.471690085836526,1.3850734505746751,1.6484620709584357,4.6098697679907,1,323,-1.793018636425102,7.574933020026682
966,Cs2Li3GaO4,Cs2Li3GaO4_Va_O1,3.8867,-2.005658967336206,1.1181967269204964,1.351219035267174,3.881513155426738,1,79,-1.793018636425102,8.714561390571419
967,Cs2LiAsO4,Cs2LiAsO4_Va_O1,3.9244,-2.1015164842744247,1.5338980297458973,1.936258695615289,2.501282295534356,1,111,-0.6589084382122885,5.955295905840792
968,Cs2LiAsO4,Cs2LiAsO4_Va_O2,3.9244,-2.1015164842744247,1.432386789836049,1.822512268131817,2.586402754175955,1,95,-0.6589084382122885,6.682918565017718
969,Cs2LiAsO4,Cs2LiAsO4_Va_O3,3.9244,-2.1015164842744247,1.381685372698733,1.8813253348679115,2.4929522028119537,1,127,-0.6589084382122885,6.864209678920186
970,Cs2NaAsO4,Cs2NaAsO4_Va_O1,3.7559,-2.033367830301724,1.4926771316747098,1.8837082383600396,2.5426274832342353,1,215,-0.6589084382122885,6.179012280888518
971,Cs2NaAsO4,Cs2NaAsO4_Va_O2,3.7559,-2.033367830301724,1.4844675868810149,1.8995340407659276,2.6142136324881298,1,269,-0.6589084382122885,6.10643361818386
972,Cs2NaAsO4,Cs2NaAsO4_Va_O3,3.7559,-2.033367830301724,1.4951768996696908,1.828287378554753,2.5039216689602313,1,287,-0.6589084382122885,6.036009586963629
973,Cs2Pb2O3,Cs2Pb2O3_Va_O1,1.5981,-1.5268511915517244,1.7115984963858488,2.1850257895605347,2.397608510271099,1,223,-1.1369603723458594,7.001716106457039
974,Cs2PbO2,Cs2PbO2_Va_O1,1.8019,-1.4864209311724128,1.5820424991693416,1.9661133941325843,2.4759993178272692,1,287,-1.1369603723458594,7.636500271441571
975,Cs2PbO2,Cs2PbO2_Va_O2,1.8019,-1.4864209311724128,1.2496640479790222,1.2824712414129944,2.8343057201642594,1,323,-1.1369603723458594,6.967422446879272
976,Cs2PbO2,Cs2PbO2_Va_O3,1.8019,-1.4864209311724128,1.2862496947130024,1.261164042280456,2.774782692782117,1,305,-1.1369603723458594,6.92512029235859
977,Cs2PbO2,Cs2PbO2_Va_O4,1.8019,-1.4864209311724128,1.6736420949363475,1.9000637602392312,2.4536079131439203,1,359,-1.1369603723458594,6.8562084848613845
978,Cs2PbO3,Cs2PbO3_Va_O2,1.4961,-1.5408556518103451,1.7935254477273914,1.5928734516564451,1.455164739397054,1,431,-0.2712847561180753,7.096128202837028
979,Cs2Sn(GeO3)3,Cs2Sn(GeO3)3_Va_O1,2.6502,-2.1657504797241387,2.1090346478552253,2.804268136395372,1.9149189614241937,1,71,-1.502819088333178,8.753571775207996
980,Cs2Sn(GeO3)3,Cs2Sn(GeO3)3_Va_O2,2.6502,-2.1657504797241387,2.306198702057431,2.0221188404292767,2.5164024416181174,1,119,-1.502819088333178,6.957768924379968
981,Cs2SnO3,Cs2SnO3_Va_O1,2.5588999999999995,-1.9013199843103443,1.7187298013467722,1.8796787826834027,2.5972104927769593,1,431,-1.538575818365933,7.881367467180427
982,Cs2SnO3,Cs2SnO3_Va_O2,2.5588999999999995,-1.9013199843103443,1.3977195288843,0.925032086120494,2.958510337604378,1,359,-1.538575818365933,5.8228823142283215
983,Cs3AlGe2O7,Cs3AlGe2O7_Va_O1,3.4095000000000004,-2.4081763991379304,1.9252445318793197,2.5750699471893874,3.5355324578259104,1,175,-1.502819088333178,7.392422950364716
984,Cs3AlGe2O7,Cs3AlGe2O7_Va_O2,3.4095000000000004,-2.4081763991379304,1.8089711632458905,2.498280737212238,3.2101693801689306,1,207,-1.502819088333178,7.543240879691947
985,Cs3AlGe2O7,Cs3AlGe2O7_Va_O3,3.4095000000000004,-2.4081763991379304,1.4559114432841045,1.1891952187838166,3.200119019214755,1,199,-1.502819088333178,6.605015038424931
986,Cs3AlO3,Cs3AlO3_Va_O1,2.5495,-2.1623344291133013,1.0787764553572217,1.0024672997306396,4.551152806765132,1,91,-1.793018636425102,5.864722689595725
987,Cs3AlO3,Cs3AlO3_Va_O2,2.5495,-2.1623344291133013,1.301673256948105,2.018271449934742,4.567961223418582,1,107,-1.793018636425102,7.700661613187412
988,Cs3AlO3,Cs3AlO3_Va_O3,2.5495,-2.1623344291133013,1.1636077212086804,1.0139666307100113,4.620566212250027,1,111,-1.793018636425102,5.774548767092202
989,Cs3As5O9,Cs3As5O9_Va_O1,3.0533,-1.813479687870183,2.300759668132267,3.5853851350950476,1.2491575876495,1,167,-1.150088447140494,7.854505885760471
990,Cs3As5O9,Cs3As5O9_Va_O2,3.0533,-1.813479687870183,1.784772160448136,2.190229088224017,1.5449279490025292,1,203,-1.150088447140494,5.562470450827536
991,Cs3BiO3,Cs3BiO3_Va_O1,3.1239,-1.6135073416133006,1.2583858705521815,1.2319948434174932,2.4546740547651975,1,223,-0.9858147743813158,6.037593097795638
992,Cs3GaO3,Cs3GaO3_Va_O1,2.7652,-1.7918229108990151,1.152682345968999,1.1952467384897871,3.5916331667340913,1,111,-1.793018636425102,6.358658159918806
993,Cs3GaO3,Cs3GaO3_Va_O2,2.7652,-1.7918229108990151,1.368666003408448,2.0094397544209035,3.2862315655613257,1,107,-1.793018636425102,7.8551311097388865
994,Cs3GaO3,Cs3GaO3_Va_O3,2.7652,-1.7918229108990151,1.147523410796776,1.209305153216084,3.543871836989065,1,103,-1.793018636425102,6.0851589087086655
995,Cs3InO3,Cs3InO3_Va_O1,2.162,-1.6228296433990148,1.0806742389079749,0.8131442807694521,2.8728859174887065,1,95,-1.5993795332042406,6.017511959359828
996,Cs3InO3,Cs3InO3_Va_O2,2.162,-1.6228296433990148,1.0714780534549535,0.8084876745712968,2.932476287148829,1,103,-1.5993795332042406,6.479165650916062
997,Cs3InO3,Cs3InO3_Va_O3,2.162,-1.6228296433990148,1.291208814847411,1.5622893014384072,2.885603529301939,1,111,-1.5993795332042406,7.130850393530958
998,Cs3SbO3,Cs3SbO3_Va_O1,3.1413,-1.7730991862561585,1.3014648995320195,1.781327299744202,2.704202613258878,1,223,-1.2369755737418262,7.521253031842697
999,Cs3TlO3,Cs3TlO3_Va_O1,1.721,-1.3588165867323485,1.0177236782920165,1.016817471577232,1.8754182751259871,1,111,-0.5778080287901701,5.924031420002907
1000,Cs3TlO3,Cs3TlO3_Va_O2,1.721,-1.3588165867323485,1.2191740627970171,1.5381944522650497,1.7760031273091583,1,107,-0.5778080287901701,6.113843220837974
1001,Cs3TlO3,Cs3TlO3_Va_O3,1.721,-1.3588165867323485,1.0343447315919527,0.9991333689248044,1.835725330236243,1,103,-0.5778080287901701,5.46080913259094
1002,Cs6Ge2O7,Cs6Ge2O7_Va_O1,3.0572999999999997,-1.955927745505748,1.8372139095871296,2.6132137682028223,2.7945434513013163,1,287,-1.502819088333178,9.522886974733561
1003,Cs6Ge2O7,Cs6Ge2O7_Va_O2,3.0572999999999997,-1.955927745505748,1.308838888828172,1.5181205732351406,3.1502051904418567,1,359,-1.502819088333178,7.078111615743486
1004,Cs6Ge2O7,Cs6Ge2O7_Va_O3,3.0572999999999997,-1.955927745505748,1.2737514387069315,1.557822307412096,3.1882217077406096,1,347,-1.502819088333178,7.196227189896481
1005,Cs6Ge2O7,Cs6Ge2O7_Va_O4,3.0572999999999997,-1.955927745505748,1.2851526227502346,1.4882558943095323,3.1951965795965975,1,335,-1.502819088333178,6.900940173798864
1006,Cs6Si2O7,Cs6Si2O7_Va_O1,3.4442,-2.38790383483908,1.307232590920452,1.9356571815195789,4.531296677369129,1,275,-1.793018636425102,7.792482126379907
1007,Cs6Si2O7,Cs6Si2O7_Va_O2,3.4442,-2.38790383483908,1.9097821348071764,3.5076203644962196,3.9560642255786913,1,227,-1.793018636425102,11.130583212052537
1008,Cs6Si2O7,Cs6Si2O7_Va_O3,3.4442,-2.38790383483908,1.3401086576177912,1.8835480322680136,4.532326706579647,1,359,-1.793018636425102,7.6073247397604575
1009,Cs6Si2O7,Cs6Si2O7_Va_O4,3.4442,-2.38790383483908,1.3223868432825878,1.8399504589532645,4.541007247020234,1,323,-1.793018636425102,7.587047638742996
1010,CsAlSiO4,CsAlSiO4_Va_O1,4.674899999999999,-3.1883621500615753,2.102163835370497,2.39786506938401,4.825981372630842,1,191,-1.793018636425102,8.288216675451402
1011,CsAlSiO4,CsAlSiO4_Va_O2,4.674899999999999,-3.1883621500615753,1.8842462960671509,2.4864837916854188,4.926114602482534,1,239,-1.793018636425102,8.50732410669965
1012,CsAlSiO4,CsAlSiO4_Va_O3,4.674899999999999,-3.1883621500615753,1.886712736944713,2.481598632847279,4.950493341089939,1,287,-1.793018636425102,8.505933401776867
1013,CsAlSiO4,CsAlSiO4_Va_O4,4.674899999999999,-3.1883621500615753,2.0028858383364754,2.455512794576035,4.855147459564364,1,335,-1.793018636425102,8.291031192185693
1014,CsBO2,CsBO2_Va_O1,3.9296,-2.6054637117744255,1.8364608101788675,4.217811019469719,3.7000869535320167,1,131,-1.793018636425102,11.86915449376016
1015,CsBO2,CsBO2_Va_O2,3.9296,-2.6054637117744255,1.3811742318426656,2.164494106944802,5.154786458826624,1,143,-1.793018636425102,7.808447220764524
1016,CsBeAsO4,CsBeAsO4_Va_O1,3.9914,-2.2954097136330054,2.0637709368014594,2.5401353722620845,1.9012250825300216,1,255,-0.6589084382122885,6.528905256915397
1017,CsBeAsO4,CsBeAsO4_Va_O2,3.9914,-2.2954097136330054,2.01960060596143,2.5714787552936484,1.9920365786812555,1,319,-0.6589084382122885,6.683403883713395
1018,CsBeAsO4,CsBeAsO4_Va_O3,3.9914,-2.2954097136330054,2.1750823634371104,2.440555456689672,2.1226644689822898,1,383,-0.6589084382122885,6.423841274150052
1019,CsBeAsO4,CsBeAsO4_Va_O4,3.9914,-2.2954097136330054,2.010787454927322,2.578551122059926,2.08004089389384,1,447,-0.6589084382122885,6.63293659803346
1020,CsLi5(BO3)2,CsLi5(BO3)2_Va_O1,3.5902,-2.499420128066502,1.362320602446628,2.59199434719667,4.741226843316229,1,447,-1.793018636425102,9.704153145138793
1021,CsLi5(BO3)2,CsLi5(BO3)2_Va_O2,3.5902,-2.499420128066502,1.2891098434666748,2.6831533723087686,4.500109205608397,1,351,-1.793018636425102,10.662297283539232
1022,CsLi5(BO3)2,CsLi5(BO3)2_Va_O3,3.5902,-2.499420128066502,1.3200248342661616,2.6039376171060997,4.753963009715271,1,431,-1.793018636425102,9.71282464504818
1023,CsNa2BO3,CsNa2BO3_Va_O1,3.5757999999999996,-2.2313060886001637,1.2874669496287412,2.6312223309103437,4.576737053330399,1,111,-1.793018636425102,8.554217679626818
1024,CsNa2BO3,CsNa2BO3_Va_O2,3.5757999999999996,-2.2313060886001637,1.345609393300134,2.5216352304073997,4.729204108390736,1,95,-1.793018636425102,8.254500722811638
1025,CsSbO2,CsSbO2_Va_O1,2.3945000000000003,-1.8573301069827588,1.8755274292078843,2.790023883755725,2.21054496482906,1,383,-1.2369755737418262,8.687072172369792
1026,CsTlO,CsTlO_Va_O1,1.4732000000000005,-1.1640747204214557,1.3207425225196885,1.9117024702670256,2.0116534403137116,1,95,-0.8674893634033586,7.087904758499974
1027,Ga2O3,Ga2O3_Va_O1,2.2114,-2.268996668999999,2.3894413671718,2.8345721001720285,2.8563129462292114,1,95,-1.8812876656363955,7.3410265160065125
1028,Ga2O3,Ga2O3_Va_O2,2.2114,-2.268996668999999,2.3313459685068687,2.8870391212766604,2.642667951489239,1,127,-1.8812876656363955,9.106977200814203
1029,Ga2O3,Ga2O3_Va_O3,2.2114,-2.268996668999999,2.4005128617292173,2.4635876701348796,2.90488314721856,1,159,-1.8812876656363955,7.238438154319156
1030,Ga2PbO4,Ga2PbO4_Va_O1,3.4200000000000004,-2.070018908571428,2.3666933300950235,2.5900641261439423,2.67618451787835,1,191,-1.1369603723458594,6.536798083743593
1031,Ga2PbO4,Ga2PbO4_Va_O2,3.4200000000000004,-2.070018908571428,2.350128133368874,2.489193764010925,2.7984054963289813,1,239,-1.1369603723458594,6.546171292431161
1032,Ga2PbO4,Ga2PbO4_Va_O3,3.4200000000000004,-2.070018908571428,2.3824577020851097,2.701914834825696,2.8596353481017935,1,335,-1.1369603723458594,6.12480605100631
1033,Ga4GeO8,Ga4GeO8_Va_O1,2.2165000000000004,-2.232362397307691,2.3793666061554513,3.090454798134748,2.9135221222982146,1,55,-1.502819088333178,7.3267196116737106
1034,Ga4GeO8,Ga4GeO8_Va_O2,2.2165000000000004,-2.232362397307691,2.590542132745094,2.867799700349588,2.572311366703765,1,71,-1.502819088333178,9.557383210074809
1035,GaAsO4,GaAsO4_Va_O1,3.1853,-1.9411355259722216,2.715514224375069,2.473321477298566,1.3100578473446636,1,47,-0.6589084382122885,5.282491253850454
1036,GaAsO4,GaAsO4_Va_O2,3.1853,-1.9411355259722216,2.719485775624932,2.4577082162698316,1.7142582460189173,1,71,-0.6589084382122885,5.308643436709142
1037,GaBPbO4,GaBPbO4_Va_O1,3.1614,-2.299635754880952,2.388205813525239,3.322651171339009,3.531844364087446,1,191,-1.1369603723458594,9.155493594996823
1038,GaBPbO4,GaBPbO4_Va_O2,3.1614,-2.299635754880952,2.534567709111244,2.7772845186688273,2.6915352381747546,1,239,-1.1369603723458594,7.177196918521516
1039,GaBPbO4,GaBPbO4_Va_O3,3.1614,-2.299635754880952,2.478020335777268,3.343252051043186,3.411933922802298,1,335,-1.1369603723458594,8.402797633524962
1040,Ge3Sb2O9,Ge3Sb2O9_Va_O1,2.7623,-1.9797399339285713,2.691501831277756,3.277237424301235,1.8352725648844108,1,87,-1.2369755737418262,7.935203314569789
1041,GeO2,GeO2_Va_O1,3.0522,-2.077037438333334,2.725,2.262441673488334,2.8861973534256427,1,71,-1.502819088333178,7.521512384777801
1042,GePbO3,GePbO3_Va_O2,2.5365,-1.9292281530000004,2.6186738845561237,2.8269104136288705,1.9985494945736104,1,161,-1.1369603723458594,6.711699889701398
1043,GePbO3,GePbO3_Va_O3,2.5365,-1.9292281530000004,2.6719584035434787,2.8677407307027503,2.198191898782447,1,179,-1.1369603723458594,5.984836339852359
1044,InBO3,InBO3_Va_O1,2.7299,-2.460089823833333,2.4200000000000004,2.938655761671348,3.796390813307494,1,269,-1.5993795332042406,7.705504722241627
1045,K2Al2Sb2O7,K2Al2Sb2O7_Va_O1,3.4046000000000003,-2.5361834362307683,1.897459853782812,2.259956638137561,3.5163127772897784,1,233,-1.2369755737418262,6.959494803309463
1046,K2Al2Sb2O7,K2Al2Sb2O7_Va_O2,3.4046000000000003,-2.5361834362307683,2.039349228814054,1.6530687004716047,4.88619116443071,1,197,-1.2369755737418262,5.3245677543906975
1047,K2BeO2,K2BeO2_Va_O1,2.9366000000000003,-2.1087224357000003,1.0788354602723205,1.1404806477997904,5.163893337289377,1,455,-1.8820736227458112,5.467750461416447
1048,K2BeO2,K2BeO2_Va_O2,2.9366000000000003,-2.1087224357000003,1.1792865484720894,2.165033297398809,4.742982562926423,1,479,-1.8820736227458112,8.146884709506132
1049,K2LiBO3,K2LiBO3_Va_O1,3.6622,-2.3490071212142856,1.2714838951610274,2.5262098679396505,4.57635456343089,1,239,-1.8820736227458112,9.157919813549414
1050,K2LiBO3,K2LiBO3_Va_O2,3.6622,-2.3490071212142856,1.2992833897480602,2.2797618753094913,4.670710104197313,1,335,-1.8820736227458112,7.7264465307313674
1051,K2LiBO3,K2LiBO3_Va_O3,3.6622,-2.3490071212142856,1.2815457450993528,2.5853234554880604,4.6046470544826335,1,311,-1.8820736227458112,9.04702372271909
1052,K2MgO2,K2MgO2_Va_O1,2.5940000000000003,-1.9796745647,1.0370545008364616,1.037646905077546,4.766037959143095,1,79,-1.8820736227458112,6.35985902206451
1053,K2Na4Be2O5,K2Na4Be2O5_Va_O1,2.5279,-2.0190970670928374,1.079207477104536,1.368427025468652,4.988815140274307,1,449,-1.8820736227458112,6.558739457529124
1054,K2Na4Be2O5,K2Na4Be2O5_Va_O2,2.5279,-2.0190970670928374,1.2249327298458936,2.2681964729952075,4.790729932173514,1,467,-1.8820736227458112,8.500080434950387
1055,K2NaTlO3,K2NaTlO3_Va_O1,1.3018,-1.4404617283407233,1.056891181663265,1.121879618375898,2.017908364440763,1,103,-0.5778080287901701,5.225160483612726
1056,K2NaTlO3,K2NaTlO3_Va_O2,1.3018,-1.4404617283407233,1.044136746349314,1.1368770722414523,2.022085018272592,1,107,-0.5778080287901701,5.687508433730859
1057,K2NaTlO3,K2NaTlO3_Va_O3,1.3018,-1.4404617283407233,1.1982290052571076,1.5421633781646564,2.0063104774511027,1,111,-0.5778080287901701,5.530721823946471
1058,K2O,K2O_Va_O1,1.7232,-1.2478575836666663,0.82,0.3385650409912411,4.193671011566598,1,95,-1.8820736227458112,8.232302709535245
1059,K2Pb2O3,K2Pb2O3_Va_O1,1.5620000000000005,-1.5674005930000003,1.6435533525261856,2.440610641714416,2.554019277455571,1,223,-1.1369603723458594,6.748238400036652
1060,K2PbO2,K2PbO2_Va_O1,1.8729,-1.5445868726999992,1.5280700757987018,1.898156144499617,2.5819897758700217,1,287,-1.1369603723458594,7.206307077286043
1061,K2PbO2,K2PbO2_Va_O2,1.8729,-1.5445868726999992,1.22109028649284,1.2729591666383462,3.0487539594634914,1,323,-1.1369603723458594,6.349238372533817
1062,K2PbO2,K2PbO2_Va_O3,1.8729,-1.5445868726999992,1.241948254313536,1.1819441292291633,3.03423931882561,1,305,-1.1369603723458594,6.360900603729506
1063,K2PbO2,K2PbO2_Va_O4,1.8729,-1.5445868726999992,1.6398893590728936,1.866650441134311,2.608380711495526,1,359,-1.1369603723458594,6.424822931171246
1064,K2SnO3,K2SnO3_Va_O1,2.1971,-1.960791325583334,1.6419808485156369,1.9660257004440127,2.7083163234545067,1,359,-1.538575818365933,7.610850651991667
1065,K2SnO3,K2SnO3_Va_O2,2.1971,-1.960791325583334,1.4201159474305936,0.981756732522758,3.071916170175963,1,431,-1.538575818365933,5.280053507987287
1066,K3AlO3,K3AlO3_Va_O1,2.9283,-2.2661893055714293,1.0800495065327116,1.0387619461920332,4.9804764836406115,1,95,-1.8820736227458112,5.8741325988859785
1067,K3AlO3,K3AlO3_Va_O2,2.9283,-2.2661893055714293,1.2786564924728616,2.053009951415153,4.684701807750381,1,111,-1.8820736227458112,7.287792940684173
1068,K3BiO3,K3BiO3_Va_O1,2.9837,-1.6843301366428576,1.1934222549807096,1.288544118901772,2.2745174388482727,1,447,-0.9858147743813158,5.914050263139007
1071,K3GaO3,K3GaO3_Va_O1,2.6601,-1.896276210928572,1.1061070957060146,1.0603584466270697,3.8521601695684087,1,111,-1.8812876656363955,6.005324463386181
1072,K3GaO3,K3GaO3_Va_O2,2.6601,-1.896276210928572,1.333852158847869,1.8971655830202352,3.4407180467901943,1,87,-1.8812876656363955,7.299894594325689
1073,K3SbO3,K3SbO3_Va_O1,3.2578,-1.824618118785715,1.2538072174838404,1.6317101373212508,2.9598832095543823,1,223,-1.2369755737418262,7.03107984956786
1074,K4Be3O5,K4Be3O5_Va_O1,3.2212,-2.308588006000001,1.257701346762865,2.184786527545679,5.304838265804646,1,63,-1.8820736227458112,7.551702250762898
1075,K4Be3O5,K4Be3O5_Va_O2,3.2212,-2.308588006000001,1.183539486966224,1.3781464907697278,4.82410303120105,1,79,-1.8820736227458112,8.313057140384728
1076,K4Be3O5,K4Be3O5_Va_O3,3.2212,-2.308588006000001,1.184784264141722,1.4398180871089854,4.754746225019637,1,95,-1.8820736227458112,8.008215646423078
1077,K4PbO4,K4PbO4_Va_O1,1.6806,-1.5853561968888892,1.2224163988574512,0.8796687145391631,2.217789534479252,1,233,-0.2712847561180753,6.216568052069362
1078,K4PbO4,K4PbO4_Va_O2,1.6806,-1.5853561968888892,1.1979646371667434,0.8175647508665369,2.312484327438762,1,251,-0.2712847561180753,6.165679713919999
1079,K4PbO4,K4PbO4_Va_O3,1.6806,-1.5853561968888892,1.2120385651215948,0.8685292194312457,2.0083447538485046,1,323,-0.2712847561180753,6.138048687032517
1080,K4PbO4,K4PbO4_Va_O4,1.6806,-1.5853561968888892,1.3188050139552487,0.9202323024462608,1.847330687533206,1,305,-0.2712847561180753,4.827896105013373
1081,K4SnO4,K4SnO4_Va_O1,2.3496,-1.833078164111112,1.1516050551456698,0.9923581387123116,3.37678564136883,1,215,-1.538575818365933,6.220059130521401
1082,K4SnO4,K4SnO4_Va_O2,2.3496,-1.833078164111112,1.1681144091918765,1.0352734729656528,3.116226486433191,1,251,-1.538575818365933,6.1243849886287975
1083,K4SnO4,K4SnO4_Va_O3,2.3496,-1.833078164111112,1.182490890443199,1.056643674357346,3.279844265611324,1,287,-1.538575818365933,6.245079128240521
1084,K4SnO4,K4SnO4_Va_O4,2.3496,-1.833078164111112,1.2507091155316088,1.0674981018668082,3.0525128451618926,1,323,-1.538575818365933,5.424974966078858
1085,K6MgO4,K6MgO4_Va_O1,1.7312,-1.5861545939090913,0.9224249235006576,0.7547089892170609,4.571643844391261,1,191,-1.8820736227458112,5.94447704994859
1086,K6MgO4,K6MgO4_Va_O2,1.7312,-1.5861545939090913,0.9188701482320633,0.7077045917073994,4.445217639213089,1,263,-1.8820736227458112,5.86010279275215
1087,K6Si2O7,K6Si2O7_Va_O1,3.5319,-2.4870975168666662,1.790471193679351,3.797042472662029,3.9435497903432744,1,251,-1.8820736227458112,11.161106915032303
1088,K6Si2O7,K6Si2O7_Va_O2,3.5319,-2.4870975168666662,1.294650795359,1.7793668779087084,4.7897512475867865,1,359,-1.8820736227458112,7.43945632457066
1089,K6Si2O7,K6Si2O7_Va_O3,3.5319,-2.4870975168666662,1.2739813815063414,1.7761314716497294,4.762226607959575,1,299,-1.8820736227458112,7.310640949447622
1090,K6Si2O7,K6Si2O7_Va_O4,3.5319,-2.4870975168666662,1.2557634113310585,1.8032797918292611,4.802013150280963,1,347,-1.8820736227458112,7.5393005810305045
1091,KAsO2,KAsO2_Va_O1,3.7234,-1.893294109499999,2.0428502601032266,3.2521215720271996,1.5395874978376007,1,143,-1.150088447140494,8.640472240719427
1092,KAsO2,KAsO2_Va_O2,3.7234,-1.893294109499999,1.588438492138496,2.063522492275746,2.5689774178471234,1,191,-1.150088447140494,6.139376856875849