,formula,full_name,band_gap,formation_energy,nn_ave_eleneg,o2p_center_from_vbm,vacancy_formation_energy,charge
2058,SbO2,SbO2_Va_O3,1.9910000000000003,-1.8374915029166672,2.741856431286207,3.451624902571632,-1.2408159087226296,2
2059,SbO2,SbO2_Va_O4,1.9910000000000003,-1.8374915029166672,2.75205610645959,3.0107401268739453,-0.3207614811177692,2
2060,SiO2,SiO2_Va_O1,5.785699999999999,-3.267179193333333,2.67,2.858249381991186,3.704156758469766,2
2061,Sn5O6,Sn5O6_Va_O1,1.415,-1.7621987818181832,2.4539480703817205,3.7688308015080825,-0.483837310490371,2
2062,Sn5O6,Sn5O6_Va_O2,1.415,-1.7621987818181832,2.6357856065939984,3.6674763726434176,-0.4281192288775002,2
2063,Sn5O6,Sn5O6_Va_O3,1.415,-1.7621987818181832,2.39053715812208,3.6820594344213857,-0.6296880294563132,2
2064,SnB4O7,SnB4O7_Va_O1,3.4541000000000004,-2.6146258118055554,2.4866818536794777,4.7280040897409,-1.2802525626802814,2
2065,SnB4O7,SnB4O7_Va_O2,3.4541000000000004,-2.6146258118055554,2.3909703478304167,5.7315294788507956,-2.906350737052588,2
2066,SnB4O7,SnB4O7_Va_O3,3.4541000000000004,-2.6146258118055554,2.4263919365401607,4.843565196622258,-1.6684682834869151,2
2067,SnB4O7,SnB4O7_Va_O4,3.4541000000000004,-2.6146258118055554,2.4685555713397687,4.650600397134114,-0.9404997804583092,2
2068,SnO2,SnO2_Va_O1,0.8614000000000002,-2.107481543333334,2.6999999999999997,2.689198165456612,0.4874946412465335,2
2069,Sr(AsO3)2,Sr(AsO3)2_Va_O1,3.4882999999999997,-2.233057519074074,2.605,2.4830881013655195,-0.6603201648136243,2
2070,Sr(BO2)2,Sr(BO2)2_Va_O1,4.9695,-3.1235381182142854,2.0343749131611357,2.1615546231003835,2.1268773190224017,2
2071,Sr(BO2)2,Sr(BO2)2_Va_O2,4.9695,-3.1235381182142854,2.212165616451734,4.007286451289397,0.3575153900089236,2
2072,Sr(BiO2)2,Sr(BiO2)2_Va_O1,2.4357,-2.1114339966666664,2.324548257724588,2.5410450963922,-1.4623077333785242,2
2073,Sr(BiO2)2,Sr(BiO2)2_Va_O2,2.4357,-2.1114339966666664,2.029107554714632,1.6113191240651374,0.3173486918524233,2
2074,Sr(BiO2)2,Sr(BiO2)2_Va_O3,2.4357,-2.1114339966666664,1.9921489585095735,1.479765478436082,0.5371041497430014,2
2075,Sr(BiO2)2,Sr(BiO2)2_Va_O4,2.4357,-2.1114339966666664,2.4698862172393645,2.4288303816261245,-1.654449219348317,2
2076,Sr(SbO3)2,Sr(SbO3)2_Va_O1,2.9061999999999997,-2.3865939085185186,2.561666666666667,2.035490482256219,0.7147319307183222,2
2077,Sr2CeO4,Sr2CeO4_Va_O1,2.8113,-3.4935232297619043,1.7461864139507632,1.5237580760513547,2.012499447644865,2
2078,Sr2CeO4,Sr2CeO4_Va_O2,2.8113,-3.4935232297619043,1.6160149065174287,1.3414551932417476,2.3174261414614614,2
2079,Sr2GeO4,Sr2GeO4_Va_O1,3.5318999999999994,-2.9120691372619047,2.0119919774690533,1.7370118308883735,1.747469324067139,2
2080,Sr2GeO4,Sr2GeO4_Va_O2,3.5318999999999994,-2.9120691372619047,1.801454504713544,1.8924632325639064,1.7920450674957245,2
2081,Sr2GeO4,Sr2GeO4_Va_O3,3.5318999999999994,-2.9120691372619047,1.84635061077502,1.8548873432259887,0.53923867848175,2
2082,Sr2InSbO6,Sr2InSbO6_Va_O1,1.9202999999999997,-2.583106877333333,2.103119176484185,1.8687805300230036,1.0102080488161342,2
2083,Sr2InSbO6,Sr2InSbO6_Va_O2,1.9202999999999997,-2.583106877333333,2.103499655842161,1.8901487812913813,1.047461155161384,2
2084,Sr2InSbO6,Sr2InSbO6_Va_O3,1.9202999999999997,-2.583106877333333,2.111956822324779,1.909329567993505,1.032574455183394,2
2085,Sr2Mg(BO3)2,Sr2Mg(BO3)2_Va_O1,4.664199999999999,-3.1881523910606067,1.969591113489994,2.7036102839646188,2.075356871772523,2
2086,Sr2Mg(BO3)2,Sr2Mg(BO3)2_Va_O2,4.664199999999999,-3.1881523910606067,1.8596019315711665,2.847850531163455,1.7947765852152178,2
2087,Sr2MgGe2O7,Sr2MgGe2O7_Va_O1,3.4777,-2.813852504861111,2.106276710195257,2.8964387302764214,0.4002640128397186,2
2088,Sr2MgGe2O7,Sr2MgGe2O7_Va_O2,3.4777,-2.813852504861111,1.9984905015071912,1.5907947350894416,0.7826925138577567,2
2089,Sr2MgGe2O7,Sr2MgGe2O7_Va_O3,3.4777,-2.813852504861111,2.019881563130175,1.400426284337247,1.2995936316090098,2
2090,Sr2MgSi2O7,Sr2MgSi2O7_Va_O2,4.5134,-3.401855501527778,1.9814207009422955,1.654688585253258,2.4701913902413595,2
2091,Sr2MgSi2O7,Sr2MgSi2O7_Va_O3,4.5134,-3.401855501527778,2.0760255569431743,3.625323326053503,1.373267173203564,2
2092,Sr2PbO4,Sr2PbO4_Va_O1,1.4673000000000005,-2.466891851190476,1.8333932892028373,1.2909229458646654,1.695851339956143,2
2093,Sr2PbO4,Sr2PbO4_Va_O2,1.4673000000000005,-2.466891851190476,2.130806746421933,1.2647395656126572,0.871799279393813,2
2094,Sr2Sb2O7,Sr2Sb2O7_Va_O1,1.5038,-2.5705959062121213,2.459055399322205,2.6840017410813624,0.0712016207670784,2
2095,Sr2Sb2O7,Sr2Sb2O7_Va_O2,1.5038,-2.5705959062121213,2.4560691981034015,2.865612737955333,0.1185994727642563,2
2096,Sr2Sb2O7,Sr2Sb2O7_Va_O3,1.5038,-2.5705959062121213,2.013854602303889,1.7970500046544078,1.6168808596254638,2
2097,Sr2SiO4,Sr2SiO4_Va_O2,4.5842,-3.422863758690476,1.8141372600035992,2.1815756368674126,1.1856895671429464,2
2098,Sr2SiO4,Sr2SiO4_Va_O3,4.5842,-3.422863758690476,1.7630523901393695,2.2575793232741708,2.480822486712031,2
2099,Sr2SiO4,Sr2SiO4_Va_O4,4.5842,-3.422863758690476,1.9822723634755313,2.003378364216619,2.6917022461087443,2
2100,Sr2SnO4,Sr2SnO4_Va_O1,2.8567,-2.7861135097619045,1.6933973178721695,1.243837549095172,1.9157561705151176,2
2101,Sr2SnO4,Sr2SnO4_Va_O2,2.8567,-2.7861135097619045,1.9692086761336776,2.139614610681748,0.8889401203754499,2
2102,Sr2SnO4,Sr2SnO4_Va_O3,2.8567,-2.7861135097619045,1.983597351297278,1.9553647811038304,1.1602900201373585,2
2103,Sr3LiSbO6,Sr3LiSbO6_Va_O1,3.2918,-2.7778109675757583,1.6314690596991734,1.7724214107810354,1.5778167966231509,2
2104,SrAl2(SiO4)2,SrAl2(SiO4)2_Va_O1,4.713,-3.4431226516666653,2.554218117175958,2.1900283165736223,3.371569996222281,2
2105,SrAl2(SiO4)2,SrAl2(SiO4)2_Va_O2,4.713,-3.4431226516666653,2.2101591313762072,2.7312975627248033,2.212752503367162,2
2106,SrAl4O7,SrAl4O7_Va_O1,3.8043,-3.464532970555555,2.0686637973355024,3.3886414129236364,1.7682999760985685,2
2107,SrAl4O7,SrAl4O7_Va_O2,3.8043,-3.464532970555555,2.1085699467055883,2.2704895205259694,3.837158784627816,2
2108,SrAl4O7,SrAl4O7_Va_O3,3.8043,-3.464532970555555,1.937806108722431,2.331783423377374,3.1054495015053365,2
2109,SrBe3O4,SrBe3O4_Va_O1,4.028600000000001,-3.1129027464583334,1.6533110910502504,2.5581943510658087,3.044927438335551,2
2110,SrBe3O4,SrBe3O4_Va_O2,4.028600000000001,-3.1129027464583334,1.5282350663416238,1.7171848755800505,2.885134493218991,2
2111,SrGa2B2O7,SrGa2B2O7_Va_O1,4.0775,-2.769393090833332,2.2230932647757946,4.065944714189673,0.1763575667204717,2
2112,SrGa2B2O7,SrGa2B2O7_Va_O2,4.0775,-2.769393090833332,2.0715789785851046,1.8267356589499184,0.5146640028625116,2
2113,SrGa2B2O7,SrGa2B2O7_Va_O3,4.0775,-2.769393090833332,2.165847515895333,2.96473968899833,0.8656775874302414,2
2114,SrGa2B2O7,SrGa2B2O7_Va_O4,4.0775,-2.769393090833332,2.4300912585032153,2.793130609574969,0.6100644725934494,2
2115,SrGa4O7,SrGa4O7_Va_O2,2.5694999999999997,-2.5024807226388877,2.2095961790805183,2.3143721592175077,1.652459204377871,2
2116,SrGa4O7,SrGa4O7_Va_O3,2.5694999999999997,-2.5024807226388877,2.044322650399085,2.234831930429887,1.481515225706411,2
2117,SrGa4O7,SrGa4O7_Va_O4,2.5694999999999997,-2.5024807226388877,2.1994684574528893,3.2233249975748306,-0.1260982117340052,2
2118,SrGePbO4,SrGePbO4_Va_O1,3.4394000000000005,-2.3839253838095233,2.228592646439861,2.31437235064919,0.1933370730417172,2
2119,SrGePbO4,SrGePbO4_Va_O2,3.4394000000000005,-2.3839253838095233,2.139793199731156,1.8399136821187208,0.2697980782101401,2
2120,SrGePbO4,SrGePbO4_Va_O3,3.4394000000000005,-2.3839253838095233,2.286921758507515,2.1805350707014504,0.2601868682994879,2
2121,SrGePbO4,SrGePbO4_Va_O4,3.4394000000000005,-2.3839253838095233,2.197940068845184,2.36503167400965,0.3577054842737885,2
2122,SrIn2O4,SrIn2O4_Va_O1,1.8881000000000008,-2.357273833095238,1.975956619531696,1.8071453573751548,1.3402534332253642,2
2123,SrIn2O4,SrIn2O4_Va_O2,1.8881000000000008,-2.357273833095238,1.9731408891390827,1.5315136840051684,1.2584773653376833,2
2124,SrIn2O4,SrIn2O4_Va_O3,1.8881000000000008,-2.357273833095238,2.1229562814465397,1.4984038828330914,1.2255904040940293,2
2125,SrIn2O4,SrIn2O4_Va_O4,1.8881000000000008,-2.357273833095238,2.0210026484402803,1.630761717052397,1.1661962108236763,2
2126,SrLi2SiO4,SrLi2SiO4_Va_O1,4.6882,-3.0221305220833337,1.482926365398387,1.8266348316816623,3.3525118850037665,2
2127,SrLi2SiO4,SrLi2SiO4_Va_O2,4.6882,-3.0221305220833337,1.470910524122716,1.9269463357027872,3.089208925185678,2
2128,SrLiBO3,SrLiBO3_Va_O1,4.4504,-2.9997611794444454,1.4591439551030227,2.6759944811907257,2.368445445363061,2
2129,SrLiBO3,SrLiBO3_Va_O2,4.4504,-2.9997611794444454,1.695933600275719,2.5661350527155924,2.3992975105196908,2
2130,SrLiBO3,SrLiBO3_Va_O3,4.4504,-2.9997611794444454,1.5105340412527664,2.644823179286754,2.330638083497968,2
2131,SrO,SrO_Va_O1,3.1607000000000003,-3.077090665833333,0.9500000000000002,0.908791266440336,3.82069807799404,2
2132,SrPbO3,SrPbO3_Va_O1,0.8837999999999999,-2.1561375228333324,2.2539923811744185,1.532005192005701,0.0745024407813379,2
2133,SrPbO3,SrPbO3_Va_O2,0.8837999999999999,-2.1561375228333324,2.2388598914155593,1.4658836270450994,0.1555864603969214,2
2134,SrSn(BO3)2,SrSn(BO3)2_Va_O1,3.814599999999999,-2.8331703589999995,2.3137141771732708,2.7809334773488184,0.1317356538183387,2
2135,SrSnO3,SrSnO3_Va_O1,1.9664,-2.637945564833333,2.116172940657988,1.882989803022736,1.063512574112727,2
2136,SrSnO3,SrSnO3_Va_O2,1.9664,-2.637945564833333,2.1240512179988422,1.9014707125479116,1.0387557685588198,2
2137,Tl2O,Tl2O_Va_O1,0.3592000000000004,-0.8199783955555553,1.6847532472986757,2.450006096135706,-1.3306771732245497,2
2138,Tl2SnO3,Tl2SnO3_Va_O1,1.0258000000000005,-1.5003471177777783,2.3086155511875828,3.3593190693101445,-0.6252152741448502,2
2139,Tl2SnO3,Tl2SnO3_Va_O2,1.0258000000000005,-1.5003471177777783,2.269492997378121,3.0497117872618964,0.0502668934221541,2
2140,Tl2SnO3,Tl2SnO3_Va_O3,1.0258000000000005,-1.5003471177777783,2.1350711302464656,2.7594583476664427,-0.2565093743339308,2
2141,Tl3BO3,Tl3BO3_Va_O1,1.2292999999999998,-1.6481950663095244,2.065470055230187,3.884383397262264,-0.224703075545317,2
2142,Tl6Si2O7,Tl6Si2O7_Va_O1,1.2203999999999997,-1.905314270666666,2.1098998001661045,3.5557461656266147,0.9944575321542852,2
2143,Tl6Si2O7,Tl6Si2O7_Va_O2,1.2203999999999997,-1.905314270666666,2.2174035543785906,4.885201324285101,0.2394090991427995,2
2144,TlSbO3,TlSbO3_Va_O1,2.3711,-1.7144332416666668,2.5046166686920737,3.2383319675300344,-0.2947829538391144,2