,formula,full_name,band_gap,formation_energy,nn_ave_eleneg,o2p_center_from_vbm,vacancy_formation_energy,charge,vacancy_index,vr_max,Eb_sum
171,Ca2SnO4,Ca2SnO4_Va_O2,2.841899999999999,-2.886048206428571,2.048321038806505,1.641962653738677,5.522538049999989,0,419,-1.538575818365933,9.32615717718792
172,Ca3(BO3)2,Ca3(BO3)2_Va_O1,4.9902,-3.288179811212121,1.82848968227586,2.5767985882804023,7.1639846800000075,0,65,-2.1905056483979153,9.096443620842072
173,Ca4As2O,Ca4As2O_Va_O1,1.0927000000000002,-1.8127497364285716,1.0107909576537852,3.667272518986856,7.170827219999987,0,125,-3.2905001259273035,10.329228572035689
175,CaAl2(SiO4)2,CaAl2(SiO4)2_Va_O1,4.7445,-3.426421389615385,2.2247122561229453,2.867429592559109,6.698040679999972,0,197,-2.356834901289411,8.741755690861666
176,CaAl2(SiO4)2,CaAl2(SiO4)2_Va_O2,4.7445,-3.426421389615385,2.5640616202147006,2.257809906846316,6.154510140000079,0,233,-2.356834901289411,7.432281630168499
177,CaAl4O7,CaAl4O7_Va_O1,4.1142,-3.4639722058333335,2.088177094032116,3.144216966527723,7.282963649999951,0,167,-2.8945619964631555,7.913433517721903
178,CaAl4O7,CaAl4O7_Va_O2,4.1142,-3.4639722058333335,2.1039549337889567,2.138266166770475,6.773601379999841,0,215,-2.8945619964631555,6.708269720611802
179,CaAl4O7,CaAl4O7_Va_O3,4.1142,-3.4639722058333335,1.963616567386678,2.110231573195404,6.96492865000017,0,287,-2.8945619964631555,7.285776230820881
180,CaAl4O7,CaAl4O7_Va_O4,4.1142,-3.4639722058333335,2.0158749846122253,2.377521384129426,6.850801999999826,0,263,-2.8945619964631555,7.72904138741619
181,CaAlBO4,CaAlBO4_Va_O1,4.8482,-3.322331291309524,2.1439313154614004,2.673581501380673,6.766489970000189,0,323,-2.1905056483979153,9.252390122611988
182,CaAlBO4,CaAlBO4_Va_O2,4.8482,-3.322331291309524,2.0478058480266785,1.7863333742503076,6.844755980000068,0,287,-2.1905056483979153,6.731291534808525
183,CaAlBO4,CaAlBO4_Va_O3,4.8482,-3.322331291309524,2.130939750409299,2.7556880128098364,6.860144059999934,0,215,-2.1905056483979153,9.218465471580343
184,CaAlBO4,CaAlBO4_Va_O4,4.8482,-3.322331291309524,1.867220847728845,1.9850240612699055,7.178106530000045,0,335,-2.1905056483979153,8.638660697472496
185,CaGa4O7,CaGa4O7_Va_O1,2.6787,-2.506107837916666,2.1316318553997298,2.3698296539918005,4.740904160000023,0,47,-1.8812876656363955,6.941758635233377
186,CaGa4O7,CaGa4O7_Va_O2,2.6787,-2.506107837916666,2.192568473700708,2.287998240434402,4.638148409999994,0,63,-1.8812876656363955,6.484378121505419
187,CaGa4O7,CaGa4O7_Va_O3,2.6787,-2.506107837916666,2.099390967427051,2.15246393080537,4.927625449999946,0,79,-1.8812876656363955,6.607956026713236
188,CaGa4O7,CaGa4O7_Va_O4,2.6787,-2.506107837916666,2.222047636805791,3.094619766232644,5.144887999999932,0,95,-1.8812876656363955,7.362839847006367
189,CaGaBO4,CaGaBO4_Va_O1,4.0537,-2.9093757377380953,2.188593201123475,2.812982007317987,5.677942270000026,0,311,-1.8812876656363955,8.942537536181478
190,CaGaBO4,CaGaBO4_Va_O2,4.0537,-2.9093757377380953,1.877953642280059,2.1154879613438142,7.011004410000064,0,323,-1.8812876656363955,8.617621896101301
191,CaGaBO4,CaGaBO4_Va_O3,4.0537,-2.9093757377380953,2.1612030597250236,2.0151700060599893,4.482450480000248,0,287,-1.8812876656363955,6.487883415586022
192,CaGaBO4,CaGaBO4_Va_O4,4.0537,-2.9093757377380953,2.1747770956015717,2.9328806742666065,5.739441990000055,0,335,-1.8812876656363955,8.885590540228495
193,CaIn2O4,CaIn2O4_Va_O1,2.0752,-2.394796169285714,2.0342771754084517,1.5120940085150172,5.04011231999983,0,447,-1.5993795332042406,7.078493802250373
194,CaMg(SiO3)2,CaMg(SiO3)2_Va_O1,5.056100000000001,-3.3468844764999996,2.240869199693262,3.7623023802311546,6.69820555000002,0,47,-2.356834901289411,11.387722529503774
195,CaMg(SiO3)2,CaMg(SiO3)2_Va_O2,5.056100000000001,-3.3468844764999996,2.231624228522082,1.896279671272239,6.329686270000034,0,63,-2.356834901289411,7.537368504294459
196,CaMg(SiO3)2,CaMg(SiO3)2_Va_O3,5.056100000000001,-3.3468844764999996,2.022506571784655,2.430394617278502,6.598490830000069,0,79,-2.356834901289411,8.854815129089
197,CaMgGeO4,CaMgGeO4_Va_O1,3.5043999999999995,-2.871467272857142,1.9273864631193447,1.6588338733131098,4.727265450000013,0,103,-1.502819088333178,8.451883753805642
198,CaMgGeO4,CaMgGeO4_Va_O2,3.5043999999999995,-2.871467272857142,1.956212346090512,1.780325402562858,4.900803259999984,0,111,-1.502819088333178,8.618038921962484
199,CaMgGeO4,CaMgGeO4_Va_O3,3.5043999999999995,-2.871467272857142,1.9816418619735563,2.1053243622751676,4.434127479999924,0,99,-1.502819088333178,8.311198642408144
200,CaMgSiO4,CaMgSiO4_Va_O1,4.683,-3.365238211785714,1.9036816924056348,1.945885346646104,6.7117096900000295,0,119,-2.356834901289411,8.935873874636258
201,CaMgSiO4,CaMgSiO4_Va_O2,4.683,-3.365238211785714,1.9207107619102557,2.0946786633173695,6.806103920000064,0,143,-2.356834901289411,9.113485382139942
202,CaMgSiO4,CaMgSiO4_Va_O3,4.683,-3.365238211785714,1.9567251696860763,2.2209658958816463,6.592335579999949,0,167,-2.356834901289411,8.730522273567686
203,CaO,CaO_Va_O1,3.5479,-3.3060156124999995,1.0,1.2018086062036886,7.691605040000022,0,63,-3.2905001259273035,11.020274752984378
204,CaSn(BO3)2,CaSn(BO3)2_Va_O1,3.9172,-2.8374268643333345,2.320355363013704,2.7976208853270426,5.967561989999817,0,269,-1.538575818365933,8.110022034422443
205,CaSnO3,CaSnO3_Va_O1,3.068,-2.6796842760000006,2.1469451706387996,1.633967709954644,5.165658959999869,0,269,-1.538575818365933,8.156731975870434
206,Cs2Al2As2O7,Cs2Al2As2O7_Va_O1,3.5767,-2.50447628698939,1.9824255200641765,3.0897262460855073,5.426251129999978,0,287,-1.150088447140494,6.852539343637688
207,Cs2Al2As2O7,Cs2Al2As2O7_Va_O2,3.5767,-2.50447628698939,1.7799465903286285,2.365795355247751,6.525579730000013,0,191,-1.150088447140494,6.029193607379716
208,Cs2Al2As2O7,Cs2Al2As2O7_Va_O3,3.5767,-2.50447628698939,2.171134085728217,3.003992722588141,5.240528469999967,0,311,-1.150088447140494,6.680522281290765
209,Cs2Al2Sb2O7,Cs2Al2Sb2O7_Va_O1,3.5528999999999997,-2.515293009297082,1.9084868192717543,2.213123848134931,5.491618099999991,0,233,-1.2369755737418262,7.065734457012278
210,Cs2Al2Sb2O7,Cs2Al2Sb2O7_Va_O2,3.5528999999999997,-2.515293009297082,2.0471868765130923,1.6065783243480625,6.148584030000061,0,197,-1.2369755737418262,5.3245677543906975
211,Cs2BeO2,Cs2BeO2_Va_O1,2.8190999999999997,-2.0228830126724127,1.184602843015307,2.0400287921043465,6.6364066600002705,0,479,-1.793018636425102,8.076469897684353
212,Cs2BeO2,Cs2BeO2_Va_O2,2.8190999999999997,-2.0228830126724127,1.0609972061391637,1.14828054545211,6.480850050000194,0,455,-1.793018636425102,5.703125673169486
213,Cs2CeO3,Cs2CeO3_Va_O1,2.5233,-2.6745016659770116,1.3420881524295536,1.3705822028184516,4.964501289999939,0,431,-1.793018636425102,8.191705145895765
214,Cs2Li2GeO4,Cs2Li2GeO4_Va_O1,3.5806000000000004,-2.1051380158365265,1.2505026491417384,1.6281779424231504,4.825497489999984,0,215,-1.502819088333178,8.215182389578084
215,Cs2Li2GeO4,Cs2Li2GeO4_Va_O2,3.5806000000000004,-2.1051380158365265,1.2449797845032216,1.7700711978375825,5.20998449000002,0,251,-1.502819088333178,9.04321837114257
216,Cs2Li2GeO4,Cs2Li2GeO4_Va_O3,3.5806000000000004,-2.1051380158365265,1.3565996846224582,1.342311365713568,4.244944519999885,0,287,-1.502819088333178,7.052097244479283
217,Cs2Li2GeO4,Cs2Li2GeO4_Va_O4,3.5806000000000004,-2.1051380158365265,1.2588857501474813,1.805930522346883,5.0755888,0,323,-1.502819088333178,9.07733002993048
218,Cs2Li2SiO4,Cs2Li2SiO4_Va_O1,4.0485,-2.471690085836526,1.288665516529164,2.2116258351157856,6.852228599999885,0,215,-1.793018636425102,9.666788848294473
219,Cs2Li2SiO4,Cs2Li2SiO4_Va_O2,4.0485,-2.471690085836526,1.274006013143821,2.024883880365523,6.672958639999829,0,251,-1.793018636425102,9.110357285828291
220,Cs2Li2SiO4,Cs2Li2SiO4_Va_O3,4.0485,-2.471690085836526,1.2614680654511172,2.211409682046513,6.90530843,0,287,-1.793018636425102,9.770873308456135
221,Cs2Li2SiO4,Cs2Li2SiO4_Va_O4,4.0485,-2.471690085836526,1.3850734505746751,1.6484620709584357,6.308132009999904,0,323,-1.793018636425102,7.574933020026682
222,Cs2Li3GaO4,Cs2Li3GaO4_Va_O1,3.8867,-2.005658967336206,1.1181967269204964,1.351219035267174,5.5107512299999915,0,79,-1.793018636425102,8.714561390571419
223,Cs2LiAsO4,Cs2LiAsO4_Va_O1,3.9244,-2.1015164842744247,1.5338980297458973,1.936258695615289,3.730925379999926,0,111,-0.6589084382122885,5.955295905840792
224,Cs2LiAsO4,Cs2LiAsO4_Va_O2,3.9244,-2.1015164842744247,1.432386789836049,1.822512268131817,3.7508794299999497,0,95,-0.6589084382122885,6.682918565017718
225,Cs2LiAsO4,Cs2LiAsO4_Va_O3,3.9244,-2.1015164842744247,1.381685372698733,1.8813253348679115,3.698128719999895,0,127,-0.6589084382122885,6.864209678920186
226,Cs2NaAsO4,Cs2NaAsO4_Va_O1,3.7559,-2.033367830301724,1.4926771316747098,1.8837082383600396,3.8470199199999886,0,215,-0.6589084382122885,6.179012280888518
227,Cs2NaAsO4,Cs2NaAsO4_Va_O2,3.7559,-2.033367830301724,1.4844675868810149,1.8995340407659276,3.812766990000122,0,269,-0.6589084382122885,6.10643361818386
228,Cs2NaAsO4,Cs2NaAsO4_Va_O3,3.7559,-2.033367830301724,1.4951768996696908,1.828287378554753,3.603773619999979,0,287,-0.6589084382122885,6.036009586963629
229,Cs2Pb2O3,Cs2Pb2O3_Va_O1,1.5981,-1.5268511915517244,1.7115984963858488,2.1850257895605347,4.016320110000047,0,223,-1.1369603723458594,7.001716106457039
230,Cs2PbO2,Cs2PbO2_Va_O1,1.8019,-1.4864209311724128,1.5820424991693416,1.9661133941325843,4.030662020000031,0,287,-1.1369603723458594,7.636500271441571
231,Cs2PbO2,Cs2PbO2_Va_O4,1.8019,-1.4864209311724128,1.6736420949363475,1.9000637602392312,4.006446770000034,0,359,-1.1369603723458594,6.8562084848613845
232,Cs2PbO3,Cs2PbO3_Va_O1,1.4961,-1.5408556518103451,1.485559247551684,0.8198797051437268,1.9968066599998424,0,287,-0.2712847561180753,5.3081063041045455
233,Cs2PbO3,Cs2PbO3_Va_O2,1.4961,-1.5408556518103451,1.7935254477273914,1.5928734516564451,2.988609309999797,0,431,-0.2712847561180753,7.096128202837028
234,Cs2Sn(GeO3)3,Cs2Sn(GeO3)3_Va_O1,2.6502,-2.1657504797241387,2.1090346478552253,2.804268136395372,4.208312760000021,0,71,-1.502819088333178,8.753571775207996
235,Cs2Sn(GeO3)3,Cs2Sn(GeO3)3_Va_O2,2.6502,-2.1657504797241387,2.306198702057431,2.0221188404292767,3.8984446300000943,0,119,-1.502819088333178,6.957768924379968
236,Cs2SnO3,Cs2SnO3_Va_O1,2.5588999999999995,-1.9013199843103443,1.7187298013467722,1.8796787826834027,4.551719139999827,0,431,-1.538575818365933,7.881367467180427
237,Cs2SnO3,Cs2SnO3_Va_O2,2.5588999999999995,-1.9013199843103443,1.3977195288843,0.925032086120494,3.603359599999644,0,359,-1.538575818365933,5.8228823142283215
238,Cs3AlGe2O7,Cs3AlGe2O7_Va_O1,3.4095000000000004,-2.4081763991379304,1.9252445318793197,2.5750699471893874,4.827763529999979,0,175,-1.502819088333178,7.392422950364716
239,Cs3AlGe2O7,Cs3AlGe2O7_Va_O2,3.4095000000000004,-2.4081763991379304,1.8089711632458905,2.498280737212238,4.987124000000117,0,207,-1.502819088333178,7.543240879691947
240,Cs3AlGe2O7,Cs3AlGe2O7_Va_O3,3.4095000000000004,-2.4081763991379304,1.4559114432841045,1.1891952187838166,3.7672609200000218,0,199,-1.502819088333178,6.605015038424931
241,Cs3AlGe2O7,Cs3AlGe2O7_Va_O4,3.4095000000000004,-2.4081763991379304,1.92069500504883,2.8991416044971916,4.065247379999969,0,191,-1.502819088333178,9.243372411483977
242,Cs3AlO3,Cs3AlO3_Va_O1,2.5495,-2.1623344291133013,1.0787764553572217,1.0024672997306396,6.003346330000008,0,91,-1.793018636425102,5.864722689595725
243,Cs3AlO3,Cs3AlO3_Va_O2,2.5495,-2.1623344291133013,1.301673256948105,2.018271449934742,6.672025369999924,0,107,-1.793018636425102,7.700661613187412
244,Cs3AlO3,Cs3AlO3_Va_O3,2.5495,-2.1623344291133013,1.1636077212086804,1.0139666307100113,6.088086709999979,0,111,-1.793018636425102,5.774548767092202
245,Cs3As5O9,Cs3As5O9_Va_O1,3.0533,-1.813479687870183,2.300759668132267,3.5853851350950476,3.858635100000024,0,167,-1.150088447140494,7.854505885760471
246,Cs3As5O9,Cs3As5O9_Va_O2,3.0533,-1.813479687870183,1.784772160448136,2.190229088224017,4.123548859999923,0,203,-1.150088447140494,5.562470450827536
247,Cs3BiO3,Cs3BiO3_Va_O1,3.1239,-1.6135073416133006,1.2583858705521815,1.2319948434174932,3.9902905099999177,0,223,-0.9858147743813158,6.037593097795638
248,Cs3GaO3,Cs3GaO3_Va_O1,2.7652,-1.7918229108990151,1.152682345968999,1.1952467384897871,4.966287370000041,0,111,-1.793018636425102,6.358658159918806
249,Cs3GaO3,Cs3GaO3_Va_O2,2.7652,-1.7918229108990151,1.368666003408448,2.0094397544209035,5.33823221000001,0,107,-1.793018636425102,7.8551311097388865
250,Cs3GaO3,Cs3GaO3_Va_O3,2.7652,-1.7918229108990151,1.147523410796776,1.209305153216084,4.943783830000038,0,103,-1.793018636425102,6.0851589087086655
251,Cs3InO3,Cs3InO3_Va_O1,2.162,-1.6228296433990148,1.0806742389079749,0.8131442807694521,3.7392211399999926,0,95,-1.5993795332042406,6.017511959359828
252,Cs3InO3,Cs3InO3_Va_O2,2.162,-1.6228296433990148,1.0714780534549535,0.8084876745712968,3.7899708200000166,0,103,-1.5993795332042406,6.479165650916062
253,Cs3InO3,Cs3InO3_Va_O3,2.162,-1.6228296433990148,1.291208814847411,1.5622893014384072,4.195470469999984,0,111,-1.5993795332042406,7.130850393530958
254,Cs3SbO3,Cs3SbO3_Va_O1,3.1413,-1.7730991862561585,1.3014648995320195,1.781327299744202,4.478133699999839,0,223,-1.2369755737418262,7.521253031842697
255,Cs3TlO3,Cs3TlO3_Va_O1,1.721,-1.3588165867323485,1.0177236782920165,1.016817471577232,2.6414307799999595,0,111,-0.5778080287901701,5.924031420002907
256,Cs3TlO3,Cs3TlO3_Va_O2,1.721,-1.3588165867323485,1.2191740627970171,1.5381944522650497,3.002317409999998,0,107,-0.5778080287901701,6.113843220837974
257,Cs3TlO3,Cs3TlO3_Va_O3,1.721,-1.3588165867323485,1.0343447315919527,0.9991333689248044,2.6019578300000124,0,103,-0.5778080287901701,5.46080913259094
258,Cs6Ge2O7,Cs6Ge2O7_Va_O1,3.0572999999999997,-1.955927745505748,1.8372139095871296,2.6132137682028223,4.63618572000008,0,287,-1.502819088333178,9.522886974733561
259,Cs6Ge2O7,Cs6Ge2O7_Va_O2,3.0572999999999997,-1.955927745505748,1.308838888828172,1.5181205732351406,4.361023999999938,0,359,-1.502819088333178,7.078111615743486
260,Cs6Ge2O7,Cs6Ge2O7_Va_O3,3.0572999999999997,-1.955927745505748,1.2737514387069315,1.557822307412096,4.448107309999964,0,347,-1.502819088333178,7.196227189896481
261,Cs6Ge2O7,Cs6Ge2O7_Va_O4,3.0572999999999997,-1.955927745505748,1.2851526227502346,1.4882558943095323,4.396731010000062,0,335,-1.502819088333178,6.900940173798864
262,Cs6Si2O7,Cs6Si2O7_Va_O1,3.4442,-2.38790383483908,1.307232590920452,1.9356571815195789,6.415738609999957,0,275,-1.793018636425102,7.792482126379907
263,Cs6Si2O7,Cs6Si2O7_Va_O2,3.4442,-2.38790383483908,1.9097821348071764,3.5076203644962196,6.753875609999691,0,227,-1.793018636425102,11.130583212052537
264,Cs6Si2O7,Cs6Si2O7_Va_O3,3.4442,-2.38790383483908,1.3401086576177912,1.8835480322680136,6.383200169999677,0,359,-1.793018636425102,7.6073247397604575
265,Cs6Si2O7,Cs6Si2O7_Va_O4,3.4442,-2.38790383483908,1.3223868432825878,1.8399504589532645,6.355920429999864,0,323,-1.793018636425102,7.587047638742996
266,CsAlSiO4,CsAlSiO4_Va_O1,4.674899999999999,-3.1883621500615753,2.102163835370497,2.39786506938401,6.303446340000287,0,191,-1.793018636425102,8.288216675451402
267,CsAlSiO4,CsAlSiO4_Va_O2,4.674899999999999,-3.1883621500615753,1.8842462960671509,2.4864837916854188,6.489763910000315,0,239,-1.793018636425102,8.50732410669965
268,CsAlSiO4,CsAlSiO4_Va_O3,4.674899999999999,-3.1883621500615753,1.886712736944713,2.481598632847279,6.485261600000181,0,287,-1.793018636425102,8.505933401776867
269,CsAlSiO4,CsAlSiO4_Va_O4,4.674899999999999,-3.1883621500615753,2.0028858383364754,2.455512794576035,6.352438900000275,0,335,-1.793018636425102,8.291031192185693
270,CsBO2,CsBO2_Va_O1,3.9296,-2.6054637117744255,1.8364608101788675,4.217811019469719,6.189978950000077,0,131,-1.793018636425102,11.86915449376016
271,CsBO2,CsBO2_Va_O2,3.9296,-2.6054637117744255,1.3811742318426656,2.164494106944802,6.956328410000092,0,143,-1.793018636425102,7.808447220764524
272,CsBeAsO4,CsBeAsO4_Va_O1,3.9914,-2.2954097136330054,2.0637709368014594,2.5401353722620845,3.479546809999997,0,255,-0.6589084382122885,6.528905256915397
273,CsBeAsO4,CsBeAsO4_Va_O2,3.9914,-2.2954097136330054,2.01960060596143,2.5714787552936484,3.5970881100000813,0,319,-0.6589084382122885,6.683403883713395
274,CsBeAsO4,CsBeAsO4_Va_O3,3.9914,-2.2954097136330054,2.1750823634371104,2.440555456689672,3.5650688800000214,0,383,-0.6589084382122885,6.423841274150052
275,CsBeAsO4,CsBeAsO4_Va_O4,3.9914,-2.2954097136330054,2.010787454927322,2.578551122059926,3.7277177800000434,0,447,-0.6589084382122885,6.63293659803346
276,CsLi5(BO3)2,CsLi5(BO3)2_Va_O1,3.5902,-2.499420128066502,1.362320602446628,2.59199434719667,7.122261269999749,0,447,-1.793018636425102,9.704153145138793
277,CsLi5(BO3)2,CsLi5(BO3)2_Va_O2,3.5902,-2.499420128066502,1.2891098434666748,2.6831533723087686,7.174266019999672,0,351,-1.793018636425102,10.662297283539232
278,CsLi5(BO3)2,CsLi5(BO3)2_Va_O3,3.5902,-2.499420128066502,1.3200248342661616,2.6039376171060997,7.1742387899997855,0,431,-1.793018636425102,9.71282464504818
279,CsNa2BO3,CsNa2BO3_Va_O1,3.5757999999999996,-2.2313060886001637,1.2874669496287412,2.6312223309103437,6.94818082000007,0,111,-1.793018636425102,8.554217679626818
280,CsNa2BO3,CsNa2BO3_Va_O2,3.5757999999999996,-2.2313060886001637,1.345609393300134,2.5216352304073997,6.91627121,0,95,-1.793018636425102,8.254500722811638
281,CsSbO2,CsSbO2_Va_O1,2.3945000000000003,-1.8573301069827588,1.8755274292078843,2.790023883755725,4.366049690000077,0,383,-1.2369755737418262,8.687072172369792
282,CsTlO,CsTlO_Va_O1,1.4732000000000005,-1.1640747204214557,1.3207425225196885,1.9117024702670256,3.5620953999999845,0,95,-0.8674893634033586,7.087904758499974
283,Ga2O3,Ga2O3_Va_O1,2.2114,-2.268996668999999,2.3894413671718,2.8345721001720285,4.668474750000096,0,95,-1.8812876656363955,7.3410265160065125
284,Ga2O3,Ga2O3_Va_O2,2.2114,-2.268996668999999,2.3313459685068687,2.8870391212766604,5.298623480000069,0,127,-1.8812876656363955,9.106977200814203
285,Ga2O3,Ga2O3_Va_O3,2.2114,-2.268996668999999,2.4005128617292173,2.4635876701348796,5.068348539999997,0,159,-1.8812876656363955,7.238438154319156
286,Ga2PbO4,Ga2PbO4_Va_O1,3.4200000000000004,-2.070018908571428,2.3666933300950235,2.5900641261439423,4.543920279999734,0,191,-1.1369603723458594,6.536798083743593
287,Ga2PbO4,Ga2PbO4_Va_O2,3.4200000000000004,-2.070018908571428,2.350128133368874,2.489193764010925,4.349154319999693,0,239,-1.1369603723458594,6.546171292431161
288,Ga2PbO4,Ga2PbO4_Va_O3,3.4200000000000004,-2.070018908571428,2.3824577020851097,2.701914834825696,4.535833280000029,0,335,-1.1369603723458594,6.12480605100631
289,Ga4GeO8,Ga4GeO8_Va_O1,2.2165000000000004,-2.232362397307691,2.3793666061554513,3.090454798134748,4.556462470000051,0,55,-1.502819088333178,7.3267196116737106
290,Ga4GeO8,Ga4GeO8_Va_O2,2.2165000000000004,-2.232362397307691,2.590542132745094,2.867799700349588,5.017620630000019,0,71,-1.502819088333178,9.557383210074809
291,Ga4GeO8,Ga4GeO8_Va_O3,2.2165000000000004,-2.232362397307691,2.328462466875143,2.9082201134507284,5.298090269999998,0,103,-1.502819088333178,9.122053022358509
292,Ga4GeO8,Ga4GeO8_Va_O4,2.2165000000000004,-2.232362397307691,2.5347687117833875,2.5584330016921335,5.164637070000035,0,95,-1.502819088333178,8.686244490563947
293,GaAsO4,GaAsO4_Va_O1,3.1853,-1.9411355259722216,2.715514224375069,2.473321477298566,3.3072650300000053,0,47,-0.6589084382122885,5.282491253850454
294,GaAsO4,GaAsO4_Va_O2,3.1853,-1.9411355259722216,2.719485775624932,2.4577082162698316,3.3188758200000255,0,71,-0.6589084382122885,5.308643436709142
295,GaBPbO4,GaBPbO4_Va_O1,3.1614,-2.299635754880952,2.388205813525239,3.322651171339009,6.382796300000232,0,191,-1.1369603723458594,9.155493594996823
296,GaBPbO4,GaBPbO4_Va_O2,3.1614,-2.299635754880952,2.534567709111244,2.7772845186688273,5.232565290000261,0,239,-1.1369603723458594,7.177196918521516
297,GaBPbO4,GaBPbO4_Va_O3,3.1614,-2.299635754880952,2.478020335777268,3.343252051043186,6.370560330000339,0,335,-1.1369603723458594,8.402797633524962