,formula,full_name,band_gap,formation_energy,nn_ave_eleneg,o2p_center_from_vbm,vacancy_formation_energy,charge,vacancy_index,vr_max,Eb_sum
271,Mg2SnO4,Mg2SnO4_Va_O2,2.6452,-2.6716233064285717,1.967551878218179,1.545521679732672,5.398928250000049,0,287,-1.538575818365933,7.254056874175092
272,Mg3(AsO4)2,Mg3(AsO4)2_Va_O1,3.7674,-2.457165634230768,2.338025179654921,2.013496418375219,3.675441429999987,0,311,-0.6589084382122885,6.013779133895397
273,Mg3(AsO4)2,Mg3(AsO4)2_Va_O2,3.7674,-2.457165634230768,2.2844127882122516,2.3976041183048076,3.897180179999973,0,299,-0.6589084382122885,6.105057711051703
274,Mg3(AsO4)2,Mg3(AsO4)2_Va_O3,3.7674,-2.457165634230768,2.3589508755567294,2.0266475576627507,3.674535109999974,0,287,-0.6589084382122885,6.020501893995622
275,Mg3(AsO4)2,Mg3(AsO4)2_Va_O4,3.7674,-2.457165634230768,2.32432191979167,2.3127244859187024,3.5821218200000065,0,275,-0.6589084382122885,6.067566815228143
276,Mg3(BO3)2,Mg3(BO3)2_Va_O1,5.2993,-3.0366663284848485,1.9707507475268855,2.6416591668978153,7.367082699999978,0,395,-2.1905056483979153,8.938517942651082
277,Mg3(BO3)2,Mg3(BO3)2_Va_O2,5.2993,-3.0366663284848485,1.9277663201587751,2.850843494361607,7.330453509999993,0,359,-2.1905056483979153,9.677891596779926
278,MgAl2O4,MgAl2O4_Va_O1,5.2208,-3.374314229285714,2.023271694617387,2.037486965492664,7.489577900000208,0,447,-2.8945619964631555,9.571409215792725
279,MgGeO3,MgGeO3_Va_O1,2.3566000000000003,-2.560048076,2.4014902769604944,3.5800246206459025,4.4688539800000715,0,47,-1.502819088333178,9.113368540540733
280,MgGeO3,MgGeO3_Va_O2,2.3566000000000003,-2.560048076,2.319051462619258,2.264710052985627,4.002119290000005,0,63,-1.502819088333178,7.043483676796338
281,MgGeO3,MgGeO3_Va_O3,2.3566000000000003,-2.560048076,2.0764563078768257,2.732291460717855,4.630603889999984,0,79,-1.502819088333178,8.503843979526707
282,MgO,MgO_Va_O1,4.6587,-3.0533666124999996,1.31,1.800415362880493,7.610649820000001,0,63,-3.116950431898758,10.345144576146483
286,Na2GeO3,Na2GeO3_Va_O1,2.9417999999999997,-2.139358738850575,1.840543768294723,2.927860965346632,4.517056469999952,0,63,-1.502819088333178,9.45259282912234
287,Na2GeO3,Na2GeO3_Va_O2,2.9417999999999997,-2.139358738850575,1.365304953105308,1.4611478420306878,4.221938589999931,0,95,-1.502819088333178,7.435737915568156
288,Na2PbO3,Na2PbO3_Va_O1,1.3852000000000002,-1.685241230933908,1.5578671564280668,1.287216116113615,3.5118434600000317,0,63,-0.2712847561180753,7.575380495647752
289,Na2PbO3,Na2PbO3_Va_O2,1.3852000000000002,-1.685241230933908,1.5448264821383595,1.3244149362231266,3.720592640000015,0,79,-0.2712847561180753,7.496805673756786
290,Na2PbO3,Na2PbO3_Va_O3,1.3852000000000002,-1.685241230933908,1.5622508021994184,1.3005316308390644,3.507689330000014,0,95,-0.2712847561180753,7.57189467155823
291,Na2Sb4O7,Na2Sb4O7_Va_O1,2.9387999999999996,-1.8557798171618032,2.051127537584742,2.788231272117096,4.5623656500000696,0,299,-1.2369755737418262,8.77882854366828
292,Na2Sb4O7,Na2Sb4O7_Va_O2,2.9387999999999996,-1.8557798171618032,2.392913981072047,2.92493481971893,4.564208150000136,0,251,-1.2369755737418262,9.187538631947055
293,Na2Sb4O7,Na2Sb4O7_Va_O3,2.9387999999999996,-1.8557798171618032,2.091654765961163,3.3025776457711866,4.198386270000023,0,215,-1.2369755737418262,9.11877533117919
294,Na2Sb4O7,Na2Sb4O7_Va_O4,2.9387999999999996,-1.8557798171618032,1.9446082369744648,2.7746603316008605,4.772936640000021,0,311,-1.2369755737418262,8.732260380880026
295,Na2SiO3,Na2SiO3_Va_O1,3.9955000000000007,-2.6992391030172413,1.855558496948309,3.681385195710336,6.465966139999987,0,63,-2.158566424325179,11.262421020011159
296,Na2SiO3,Na2SiO3_Va_O2,3.9955000000000007,-2.6992391030172413,1.388390723489074,1.792391604112825,6.397889370000039,0,95,-2.158566424325179,8.0387571144289
297,Na2SnO3,Na2SnO3_Va_O1,2.7495000000000003,-2.072807835933908,1.4911487521056277,1.4582995518409103,5.344908069999983,0,95,-1.538575818365933,9.113496561769498
298,Na2SnO3,Na2SnO3_Va_O2,2.7495000000000003,-2.072807835933908,1.5086257672724364,1.4058614474089528,5.161102130000026,0,91,-1.538575818365933,9.088988093596079
299,Na2SnO3,Na2SnO3_Va_O3,2.7495000000000003,-2.072807835933908,1.5036822579574365,1.392117409965449,5.1803528900000035,0,83,-1.538575818365933,9.108057032928777
300,Na3AsO4,Na3AsO4_Va_O1,3.3761,-2.0528031474568964,1.5169268366869164,1.8565538228334355,3.9640783899999494,0,111,-0.6589084382122885,5.960277523159008
301,Na3AsO4,Na3AsO4_Va_O2,3.3761,-2.0528031474568964,1.5367031765163404,1.7974362153886294,3.8331289499999546,0,103,-0.6589084382122885,6.022710029857299
302,Na3AsO4,Na3AsO4_Va_O3,3.3761,-2.0528031474568964,1.506927484517736,1.8441806235112188,3.98508406999998,0,127,-0.6589084382122885,5.891070472852341
303,Na3BO3,Na3BO3_Va_O1,3.1534999999999997,-2.267062791974549,1.2791005784099043,2.5156331496583024,6.837499409999859,0,323,-2.158566424325179,8.629222280936476
304,Na3BO3,Na3BO3_Va_O2,3.1534999999999997,-2.267062791974549,1.286527059552988,2.540594051134821,6.852747300000042,0,335,-2.158566424325179,8.745140657544914
305,Na3BO3,Na3BO3_Va_O3,3.1534999999999997,-2.267062791974549,1.275167480053936,2.5076310503212467,6.787945609999847,0,287,-2.158566424325179,8.473270082504301
306,Na3BiO3,Na3BiO3_Va_O1,2.9553000000000003,-1.7198474360221674,1.202518516146676,1.4271764364664796,4.460586569999927,0,447,-0.9858147743813158,7.117303106519547
308,Na3SbO3,Na3SbO3_Va_O1,3.0228999999999995,-1.8600301767364535,1.233599171476406,2.1216840746030035,5.128975879999766,0,447,-1.2369755737418262,8.712022469477478
309,Na3SbO4,Na3SbO4_Va_O1,2.3398999999999996,-2.005708985581896,1.3280034752738212,1.3499101437245435,4.299767370000049,0,323,-0.5208045461292565,7.565006914030511
310,Na3SbO4,Na3SbO4_Va_O2,2.3398999999999996,-2.005708985581896,1.6896411543269056,2.389389527496937,4.801790419999984,0,431,-0.5208045461292565,8.83589356895256
311,Na3TlO2,Na3TlO2_Va_O1,1.8859,-1.3479438054980846,1.040080706544037,1.611030909279504,4.91480296000004,0,79,-0.8674893634033586,6.844808823051238
312,Na3TlO2,Na3TlO2_Va_O2,1.8859,-1.3479438054980846,1.156222978173973,1.9992228719371068,4.638003369999987,0,95,-0.8674893634033586,7.089805919629348
313,Na4As2O7,Na4As2O7_Va_O1,3.3173,-2.0155756674005305,1.7540649876880414,2.0233143153842033,3.1223831600000356,0,63,-0.6589084382122885,5.658466529837109
314,Na4As2O7,Na4As2O7_Va_O2,3.3173,-2.0155756674005305,1.6314853634769144,1.970287759152461,3.2559121500000945,0,79,-0.6589084382122885,5.744402153736578
315,Na4As2O7,Na4As2O7_Va_O3,3.3173,-2.0155756674005305,1.7084466627525752,1.8908815031685529,2.9202493600000796,0,95,-0.6589084382122885,5.640248381161074
316,Na4As2O7,Na4As2O7_Va_O4,3.3173,-2.0155756674005305,2.0912548118855763,3.4326418524122086,3.5251987300000653,0,103,-0.6589084382122885,7.639005779202021
317,Na4B2O5,Na4B2O5_Va_O1,3.931799999999999,-2.4025234576854757,1.845713900961803,3.866771063003552,6.625256120000026,0,111,-2.158566424325179,12.195305634577341
318,Na4B2O5,Na4B2O5_Va_O2,3.931799999999999,-2.4025234576854757,1.3517104707823588,2.316185256690084,7.033295329999996,0,175,-2.158566424325179,8.289874878394837
319,Na4B2O5,Na4B2O5_Va_O3,3.931799999999999,-2.4025234576854757,1.3406295346177046,2.372462851852311,7.080014799999967,0,159,-2.158566424325179,8.55563422753491
320,Na4GeO4,Na4GeO4_Va_O1,2.8884999999999996,-2.0175675590229885,1.2264580719633678,1.4259876648008478,4.8971426500001005,0,305,-1.502819088333178,8.372466251447264
321,Na4GeO4,Na4GeO4_Va_O2,2.8884999999999996,-2.0175675590229885,1.2117565074226204,1.4357606009606547,5.011667060000159,0,233,-1.502819088333178,8.408576422936601
322,Na4GeO4,Na4GeO4_Va_O3,2.8884999999999996,-2.0175675590229885,1.2368473420196695,1.44457099810889,4.922840820000042,0,269,-1.502819088333178,8.413602022198738
323,Na4GeO4,Na4GeO4_Va_O4,2.8884999999999996,-2.0175675590229885,1.3449276547576416,1.4199232606298169,4.630482240000115,0,323,-1.502819088333178,6.949319647025725
324,Na4PbO4,Na4PbO4_Va_O1,1.2815,-1.610200159578544,1.2323834548105834,1.066186482334869,2.74896658000001,0,215,-0.2712847561180753,6.952675500993686
325,Na4PbO4,Na4PbO4_Va_O2,1.2815,-1.610200159578544,1.2246366108679725,1.0451122066586036,2.725313049999963,0,251,-0.2712847561180753,6.946383647501836
326,Na4PbO4,Na4PbO4_Va_O3,1.2815,-1.610200159578544,1.214450048156124,1.0536682905084844,2.75807702999999,0,287,-0.2712847561180753,7.1816485744922645
327,Na4PbO4,Na4PbO4_Va_O4,1.2815,-1.610200159578544,1.4285521221202382,1.1685431877800525,2.288921259999947,0,323,-0.2712847561180753,4.9830811897450475
328,Na4SiO4,Na4SiO4_Va_O1,3.3997,-2.3901058923563228,1.2509857988408335,1.7846678399703702,6.588761620000136,0,305,-2.158566424325179,8.760681251759213
329,Na4SiO4,Na4SiO4_Va_O2,3.3997,-2.3901058923563228,1.2277981386290096,1.806239720956594,6.670062450000055,0,233,-2.158566424325179,8.874359753844304
330,Na4SiO4,Na4SiO4_Va_O3,3.3997,-2.3901058923563228,1.2592779405693129,1.8281771317708524,6.619674010000049,0,269,-2.158566424325179,8.863665916075455
331,Na4SiO4,Na4SiO4_Va_O4,3.3997,-2.3901058923563228,1.3437535379992207,1.7779377187172276,6.424721190000023,0,323,-2.158566424325179,7.977822079813397
332,Na4SnO3,Na4SnO3_Va_O1,1.8379000000000003,-1.657075410775862,1.1969717726681846,2.239801726413944,5.2327277900000215,0,215,-1.454625234810769,7.3180580332905985
333,Na4SnO3,Na4SnO3_Va_O2,1.8379000000000003,-1.657075410775862,1.177413117691618,2.0246583033282284,5.14473260000012,0,251,-1.454625234810769,7.440093360147181
334,Na4SnO3,Na4SnO3_Va_O3,1.8379000000000003,-1.657075410775862,1.1663906719867578,1.9981502611153077,5.0984747999999716,0,287,-1.454625234810769,7.5257573063794085
335,Na4SnO4,Na4SnO4_Va_O1,2.1317,-1.8676039212452116,1.1892804405561148,1.1507983414686145,4.079619819999957,0,215,-1.538575818365933,7.515011138660514
336,Na4SnO4,Na4SnO4_Va_O2,2.1317,-1.8676039212452116,1.165292343016625,1.154792715987451,4.134188939999953,0,251,-1.538575818365933,7.54915525110352
337,Na4SnO4,Na4SnO4_Va_O3,2.1317,-1.8676039212452116,1.1727474765695347,1.1440239344205128,4.070681170000066,0,287,-1.538575818365933,7.5422145966939675
338,Na4SnO4,Na4SnO4_Va_O4,2.1317,-1.8676039212452116,1.3216859107307752,1.1784431761226957,3.656326720000047,0,323,-1.538575818365933,5.718716554647457
339,Na6PbO5,Na6PbO5_Va_O1,1.1032,-1.5700874682758617,1.349658804960484,1.508565196276811,3.696000540000009,0,91,-0.2712847561180753,5.935360064576251
340,Na6PbO5,Na6PbO5_Va_O2,1.1032,-1.5700874682758617,1.2844735360975492,1.280438359370244,3.795047200000008,0,95,-0.2712847561180753,7.376151361252444
341,NaAlO2,NaAlO2_Va_O1,3.9174,-2.933970703512931,1.5016528031852792,1.7853031428518185,6.998969500000053,0,215,-2.158566424325179,7.490427412088198
342,NaAlO2,NaAlO2_Va_O2,3.9174,-2.933970703512931,1.530096251693467,1.726511145169398,6.918318899999926,0,287,-2.158566424325179,7.152412743900133
343,NaBO2,NaBO2_Va_O1,4.1874,-2.612621758929598,1.800791350867429,4.794958586711842,6.102864149999968,0,107,-2.158566424325179,12.096112772136959
344,NaBO2,NaBO2_Va_O2,4.1874,-2.612621758929598,1.507964346670368,2.448975321494773,7.027633270000033,0,143,-2.158566424325179,8.036216507223708
345,NaBiO2,NaBiO2_Va_O1,0.8683999999999994,-1.7202619228879303,1.6366443656571326,2.7247514926830427,4.0020247000000015,0,127,-0.9858147743813158,7.304769609903421
347,NaGaO2,NaGaO2_Va_O1,2.9321,-2.2214824766379304,1.5959280894452252,1.7539251355139929,4.927023199999789,0,215,-1.8812876656363955,6.973380025111252
348,NaGaO2,NaGaO2_Va_O2,2.9321,-2.2214824766379304,1.5658864972153843,1.7928204070167568,5.038493759999833,0,287,-1.8812876656363955,7.288717304691495
349,NaInO2,NaInO2_Va_O1,2.0346,-1.9855354266379308,1.4896520697887778,1.4689325051693,4.776153229999986,0,299,-1.5993795332042406,9.001882808798587
350,NaSbO3,NaSbO3_Va_O1,2.8378,-2.0606511693103453,2.18834731319333,1.829437473272837,4.3775729500001805,0,269,-0.5208045461292565,6.819724972970111
353,Rb2Be2O3,Rb2Be2O3_Va_O1,2.4254,-2.377723397857143,1.3186439947914728,2.264499680717455,6.707784469999874,0,335,-1.7562254794348755,7.528339843136623
354,Rb2Be2O3,Rb2Be2O3_Va_O2,2.4254,-2.377723397857143,1.3098038993263637,2.3666260707242195,7.1476963799999655,0,323,-1.7562254794348755,7.4107290088977855
355,Rb2CeO3,Rb2CeO3_Va_O1,2.7647000000000004,-2.7078352658333342,1.3460816284187862,1.2315831392512286,4.575105469999821,0,431,-1.7562254794348755,8.059101511654188
356,Rb2CeO3,Rb2CeO3_Va_O2,2.7647000000000004,-2.7078352658333342,1.3443625233666276,1.209487160859462,4.531084509999696,0,395,-1.7562254794348755,7.970483552786719
357,Rb2MgO2,Rb2MgO2_Va_O1,2.5014000000000003,-1.9070924115,1.0564066381675623,1.1061368225352242,6.16237320999995,0,79,-1.7562254794348755,6.0677435810945575
358,Rb2O,Rb2O_Va_O1,1.4732,-1.133168373333333,0.82,0.3969127188451622,4.461725070000009,0,95,-1.7562254794348755,7.81645095886975
359,Rb2Pb2O3,Rb2Pb2O3_Va_O1,1.6844,-1.539362617142857,1.6705273842002886,2.3156563089413096,4.134989309999932,0,223,-1.1369603723458594,6.37978188394154
360,Rb2PbO2,Rb2PbO2_Va_O2,1.8371,-1.499867704999999,1.5562767872176382,1.9460636008394605,4.12975662999987,0,287,-1.1369603723458594,6.8398071854152205
361,Rb2PbO2,Rb2PbO2_Va_O3,1.8371,-1.499867704999999,1.2416992022539106,1.2687788231105346,4.4865454799997995,0,323,-1.1369603723458594,5.911477031310332
362,Rb2PbO2,Rb2PbO2_Va_O4,1.8371,-1.499867704999999,1.65477550972542,1.8747073643696075,4.0796532799998975,0,359,-1.1369603723458594,6.162076028079799
363,Rb2PbO3,Rb2PbO3_Va_O2,1.3140999999999998,-1.5558054725000003,1.512566128673175,0.824836430678038,1.954460719999938,0,377,-0.2712847561180753,4.756709667236767
364,Rb2Sn2O3,Rb2Sn2O3_Va_O1,0.9453999999999998,-1.7204352542857149,1.6478351694372932,3.5201396409054064,4.735854819999995,0,83,-1.454625234810769,6.574136270514933
365,Rb2SnO2,Rb2SnO2_Va_O1,2.239,-1.6441546475000002,1.6389673388076338,2.815253649531358,4.6254747100000575,0,455,-1.454625234810769,6.282863122164489
366,Rb2SnO2,Rb2SnO2_Va_O2,2.239,-1.6441546475000002,1.2059172084529577,1.8505156376234224,4.986553820000049,0,479,-1.454625234810769,5.722933404539919
367,Rb2SnO3,Rb2SnO3_Va_O1,2.2715,-1.923212555,1.6808750108243984,1.95237329003421,4.523463749999687,0,431,-1.538575818365933,7.305862681693702
368,Rb2SnO3,Rb2SnO3_Va_O2,2.2715,-1.923212555,1.4050702572516909,0.9654521921931688,3.550404869999861,0,359,-1.538575818365933,4.966544124636687
369,Rb3AlO3,Rb3AlO3_Va_O1,2.8213,-2.192958231785714,1.1030633211895935,1.0623130519345072,6.206774539999978,0,95,-1.7562254794348755,5.542208441642566
370,Rb3AlO3,Rb3AlO3_Va_O2,2.8213,-2.192958231785714,1.3077788944130129,2.0319298353912956,6.547884360000021,0,111,-1.7562254794348755,7.030618337477989
371,Rb3BiO3,Rb3BiO3_Va_O1,3.1835,-1.6211958614285713,1.2368454618170004,1.193738065945551,4.205223209999881,0,223,-0.9858147743813158,5.139217932853101
372,Rb3GaO3,Rb3GaO3_Va_O1,2.5813,-1.829943027142856,1.3586028396255856,1.9188954109317824,5.150004670000053,0,79,-1.7562254794348755,6.994055539700867
373,Rb3GaO3,Rb3GaO3_Va_O2,2.5813,-1.829943027142856,1.1253175271645046,1.1116290921680183,4.965271909999965,0,111,-1.7562254794348755,5.650030816332581
374,Rb3InO3,Rb3InO3_Va_O1,1.9467,-1.6420714696428569,1.067479041082411,0.7459525592720849,3.727990780000036,0,111,-1.5993795332042406,5.565360338184656
375,Rb3InO3,Rb3InO3_Va_O2,1.9467,-1.6420714696428569,1.275996888690673,1.512729800600991,4.136471649999985,0,107,-1.5993795332042406,6.455459523168991
376,Rb3InO3,Rb3InO3_Va_O3,1.9467,-1.6420714696428569,1.0834265971813364,0.6967453819358194,3.61898856,0,103,-1.5993795332042406,5.065729076721874
377,Rb3SbO3,Rb3SbO3_Va_O1,3.1791,-1.780475274285715,1.278245702464094,1.712103368442821,4.6617412500001,0,223,-1.2369755737418262,6.6968265817030534
378,Rb3TlO3,Rb3TlO3_Va_O1,1.5343999999999998,-1.3742784501190477,1.0405368336763197,0.8603491913254215,2.52481715999995,0,107,-0.5778080287901701,4.474254570627326
379,Rb3TlO3,Rb3TlO3_Va_O2,1.5343999999999998,-1.3742784501190477,1.2046730369938634,1.4109851689396835,2.958439589999964,0,111,-0.5778080287901701,5.456797152178742
380,Rb3TlO3,Rb3TlO3_Va_O3,1.5343999999999998,-1.3742784501190477,1.0201421598319538,0.931669723709982,2.607465979999981,0,91,-0.5778080287901701,4.978672960726369
381,Rb4PbO4,Rb4PbO4_Va_O1,1.6033,-1.527302656666666,1.3070720157688454,0.9979510856281404,2.4869681399999397,0,323,-0.2712847561180753,5.106721274774842
382,Rb4PbO4,Rb4PbO4_Va_O2,1.6033,-1.527302656666666,1.22157927460758,0.8826131327184692,2.9218927599998867,0,305,-0.2712847561180753,5.707097967872177
383,Rb4PbO4,Rb4PbO4_Va_O3,1.6033,-1.527302656666666,1.2601228870887389,0.95673797522315,2.7393282399999723,0,287,-0.2712847561180753,5.746727956455857
384,Rb4PbO4,Rb4PbO4_Va_O4,1.6033,-1.527302656666666,1.2392494475657276,0.9434678655128452,2.6245563899998476,0,269,-0.2712847561180753,5.600642548802296
385,Rb4SnO3,Rb4SnO3_Va_O1,1.7874,-1.5217606543749995,1.1747528504536422,1.894352379655548,4.902956429999799,0,233,-1.454625234810769,5.808427850047625
386,Rb4SnO3,Rb4SnO3_Va_O2,1.7874,-1.5217606543749995,1.1883874647645265,1.9674810029997856,4.968543149999855,0,251,-1.454625234810769,5.847583569353722
387,Rb4SnO3,Rb4SnO3_Va_O3,1.7874,-1.5217606543749995,1.177163951099402,1.86705331015707,4.880791679999797,0,287,-1.454625234810769,5.840509103090847
388,Rb4SnO4,Rb4SnO4_Va_O1,2.2470999999999997,-1.7707643350000004,1.2535575408013142,1.126526894597595,3.781155909999947,0,215,-1.538575818365933,5.431226609560633
389,Rb4SnO4,Rb4SnO4_Va_O2,2.2470999999999997,-1.7707643350000004,1.177260316119254,1.0449651115135987,4.168812089999969,0,251,-1.538575818365933,5.803936336056486
390,Rb4SnO4,Rb4SnO4_Va_O3,2.2470999999999997,-1.7707643350000004,1.2171300794874034,1.109757744027597,3.964887650000159,0,287,-1.538575818365933,5.8001646644964655
391,Rb4SnO4,Rb4SnO4_Va_O4,2.2470999999999997,-1.7707643350000004,1.1979440958840029,1.0817809391754487,3.8824074400000743,0,323,-1.538575818365933,5.648633650786882
392,Rb6Si2O7,Rb6Si2O7_Va_O1,3.3157999999999994,-2.4265757626666664,1.2846846109124377,1.886047280338284,6.435236069999869,0,275,-1.7562254794348755,7.265747617287543
393,Rb6Si2O7,Rb6Si2O7_Va_O2,3.3157999999999994,-2.4265757626666664,1.8430506074296524,3.551416424212495,6.5705837800000015,0,227,-1.7562254794348755,10.945562546529166
394,Rb6Si2O7,Rb6Si2O7_Va_O3,3.3157999999999994,-2.4265757626666664,1.3205817195285865,1.855323133603911,6.380475519999786,0,359,-1.7562254794348755,7.137678822865848
395,Rb6Si2O7,Rb6Si2O7_Va_O4,3.3157999999999994,-2.4265757626666664,1.3013686485182614,1.8455291388056272,6.356189489999801,0,323,-1.7562254794348755,7.081976173459338
396,RbAsO2,RbAsO2_Va_O1,3.8234,-1.8659498662499991,2.047080228348106,3.189099695784902,4.486262959999872,0,143,-1.150088447140494,8.48385148137659
397,RbAsO2,RbAsO2_Va_O2,3.8234,-1.8659498662499991,1.6025355494432765,2.0620363302223153,4.542627859999934,0,191,-1.150088447140494,5.8716563676168185
398,RbBO2,RbBO2_Va_O1,4.0156,-2.622254900833333,1.3946434677834016,2.1753724478080345,7.063651139999942,0,107,-1.7562254794348755,7.332169856967033
399,RbBO2,RbBO2_Va_O2,4.0156,-2.622254900833333,1.8228153017123696,4.178610917163613,6.264447139999911,0,143,-1.7562254794348755,11.688255544726506
400,RbBiO2,RbBiO2_Va_O1,1.9585999999999997,-1.694015584374999,1.730540124449983,2.079345563157339,4.020724320000008,0,191,-0.9858147743813158,5.28746337195769
401,RbSbO2,RbSbO2_Va_O1,2.1201,-1.864373579375,1.8388526718097649,2.848037453621166,4.43810836000001,0,191,-1.2369755737418262,8.409589471335748
402,RbTlO,RbTlO_Va_O1,1.1948,-1.1706777986111103,1.324218627261024,1.9929550085561316,3.7769892399999865,0,95,-0.8674893634033586,6.529925965698341
403,Sb2O3,Sb2O3_Va_O1,1.842700000000001,-1.751737502,2.544741242141955,3.479270991356791,4.168888170000011,0,47,-1.2369755737418262,11.414250733408618
404,Sb2O3,Sb2O3_Va_O2,1.842700000000001,-1.751737502,2.659676891928514,3.6453132200419622,4.23347437999997,0,79,-1.2369755737418262,9.226877985068997