,formula,full_name,band_gap,formation_energy,nn_ave_eleneg,o2p_center_from_vbm,vacancy_formation_energy,charge,vacancy_index,vr_max,Eb_sum
943,AlSbO4,AlSbO4_Va_O1,1.722599999999999,-2.5433669000000005,2.597103509660969,2.911445950223812,1.016020351947181,2,191,-0.5208045461292565,7.655444563366199
944,AlSbO4,AlSbO4_Va_O2,1.722599999999999,-2.5433669000000005,2.672896490339031,3.6551000107041887,0.2390589483753902,2,159,-0.5208045461292565,7.110983042173892
945,As2O3,As2O3_Va_O1,3.3312,-1.6290845505,2.745736482564582,3.6517666474416854,-0.9883017507957212,2,287,-1.150088447140494,7.552400983529943
946,As2O3,As2O3_Va_O2,3.3312,-1.6290845505,2.6515650881606163,3.61912449772006,-1.9412796043358855,2,383,-1.150088447140494,7.081817293565289
947,As2O3,As2O3_Va_O3,3.3312,-1.6290845505,2.6571443525075127,3.7018856453418607,-1.1966327609093488,2,479,-1.150088447140494,7.131939691002804
948,As2Pb3O8,As2Pb3O8_Va_O1,3.2885999999999997,-1.7352351134615382,2.6860742046445267,2.7630077039862124,-1.5591657833297032,2,251,-0.6589084382122885,5.121768205399355
949,As2Pb3O8,As2Pb3O8_Va_O2,3.2885999999999997,-1.7352351134615382,2.7042365259736325,2.9586236071888488,-1.7971430520194496,2,323,-0.6589084382122885,5.292227115333775
950,As2Pb3O8,As2Pb3O8_Va_O3,3.2885999999999997,-1.7352351134615382,2.7163595941283405,2.9774057862274157,-1.9653822343882072,2,395,-0.6589084382122885,5.41426715557764
951,As2Pb3O8,As2Pb3O8_Va_O4,3.2885999999999997,-1.7352351134615382,2.768647000263188,2.651400752553627,-1.4715929956733558,2,467,-0.6589084382122885,4.657231255072221
952,As2PbO4,As2PbO4_Va_O1,2.6284999999999994,-1.6492657325,2.5488496637752465,3.6606861531341286,-2.218591991685652,2,63,-1.1369603723458594,7.063406976418128
953,As2PbO4,As2PbO4_Va_O2,2.6284999999999994,-1.6492657325,2.6503630288382656,3.697726588387933,-1.3736386880979254,2,79,-1.1369603723458594,7.454334744341565
954,As2PbO4,As2PbO4_Va_O3,2.6284999999999994,-1.6492657325,2.5806582237199267,3.148174099169339,-0.5998686278464951,2,95,-1.1369603723458594,5.593238558068391
955,As2PbO4,As2PbO4_Va_O4,2.6284999999999994,-1.6492657325,2.695552037046685,3.189222957911923,-1.0925976520758711,2,111,-1.1369603723458594,5.783052080110901
956,As2PbO6,As2PbO6_Va_O1,2.1464,-1.7356450333333333,2.8350000000000004,3.7085103290461223,-1.9155182694596695,2,242,-0.6589084382122885,6.778591273352452
957,B4PbO7,B4PbO7_Va_O1,4.158,-2.6473397413888877,2.4960870301019216,4.0909509783768545,-1.2973302691570017,2,215,-1.1369603723458594,11.85241940185685
958,B4PbO7,B4PbO7_Va_O2,4.158,-2.6473397413888877,2.522918939325306,3.9908693958022026,-0.9115464124463676,2,206,-1.1369603723458594,11.663483431560552
959,B4PbO7,B4PbO7_Va_O3,4.158,-2.6473397413888877,2.4117625853743987,5.0308915055261805,-2.730940490603915,2,161,-1.1369603723458594,16.499047971193672
960,B4PbO7,B4PbO7_Va_O4,4.158,-2.6473397413888877,2.564729948085834,3.77814546703765,-0.6453876177255,2,197,-1.1369603723458594,11.765101776696673
961,BAsO4,BAsO4_Va_O1,4.380000000000001,-2.132276382361111,2.7750470596344017,2.9118904601513993,-0.435205826739764,2,215,-0.6589084382122885,7.892895530587905
962,Ba(AsO3)2,Ba(AsO3)2_Va_O1,2.8693999999999997,-2.1914320077777782,2.663833653764642,2.9647492210345696,-1.233834491086151,2,239,-0.6589084382122885,6.7145620356115145
963,Ba(AsO3)2,Ba(AsO3)2_Va_O2,2.8693999999999997,-2.1914320077777782,2.5819066683094225,3.220476701785266,-2.075177215742454,2,335,-0.6589084382122885,6.7064657574518165
964,Ba(SbO3)2,Ba(SbO3)2_Va_O1,2.9955999999999996,-2.376871872222223,2.5516666666666667,1.939533526774728,0.3355247654794314,2,242,-0.5208045461292565,6.160432208983011
965,Ba2Bi2O5,Ba2Bi2O5_Va_O2,1.8273,-2.288426511111112,1.8107787739008248,2.100563563987341,0.2907639053279491,2,127,-0.9858147743813158,6.407172956435611
966,Ba2Bi2O5,Ba2Bi2O5_Va_O3,1.8273,-2.288426511111112,2.059103547200948,1.833463230597384,-0.1097790104160503,2,143,-0.9858147743813158,6.739062892043297
967,Ba2In2O5,Ba2In2O5_Va_O1,0.9603000000000002,-2.424057256666667,1.701871605116176,2.3408683614378414,1.4095066147646875,2,179,-1.5993795332042406,6.609085639268365
968,Ba2In2O5,Ba2In2O5_Va_O2,0.9603000000000002,-2.424057256666667,1.815303427119624,1.7951956170136785,1.6080459285241928,2,251,-1.5993795332042406,6.927142997205392
969,Ba2In2O5,Ba2In2O5_Va_O3,0.9603000000000002,-2.424057256666667,1.8163577677689784,1.5994690297226244,1.65671032180648,2,323,-1.5993795332042406,8.24072644579751
970,Ba2PbO4,Ba2PbO4_Va_O1,1.3264000000000002,-2.3690410357142855,2.0753768308760643,1.748229577366927,-0.2583727280988024,2,89,-0.2712847561180753,8.129338226358655
971,Ba2PbO4,Ba2PbO4_Va_O2,1.3264000000000002,-2.3690410357142855,1.7175282197657022,1.0928715865474945,0.3645292612183823,2,125,-0.2712847561180753,7.566920639542842
972,Ba2SiO4,Ba2SiO4_Va_O2,4.7691,-3.3619786003571424,1.7501702673414408,2.0510531204351756,2.324037813919991,2,287,-2.356834901289411,8.497103024658102
973,Ba2SiO4,Ba2SiO4_Va_O3,4.7691,-3.3619786003571424,1.9140223485049568,1.8462819252227711,2.648694819059999,2,335,-2.356834901289411,7.666025381102768
974,Ba2SnO4,Ba2SnO4_Va_O1,2.6748,-2.7252458707142857,1.5846067414973888,1.2392503518767148,1.8050454193369556,2,89,-1.538575818365933,7.836515734134789
975,Ba2SnO4,Ba2SnO4_Va_O2,2.6748,-2.7252458707142857,2.0113911022161712,2.0533727474190098,0.8231386704460488,2,125,-1.538575818365933,8.833712919517737
976,Ba3(AsO4)2,Ba3(AsO4)2_Va_O1,4.0672999999999995,-2.691978154615385,2.3065525755656915,1.8664497423710813,0.6177095365547689,2,188,-0.6589084382122885,5.103407147039576
977,Ba3(AsO4)2,Ba3(AsO4)2_Va_O2,4.0672999999999995,-2.691978154615385,2.1447896290114725,2.1236025483072396,-0.3533348416206163,2,350,-0.6589084382122885,6.08669978564136
978,Ba3In2O6,Ba3In2O6_Va_O1,0.8739999999999997,-2.5032603363636365,1.5027520609857827,1.366161739848722,1.936059858395203,2,251,-1.5993795332042406,7.190779450362897
979,Ba3In2O6,Ba3In2O6_Va_O2,0.8739999999999997,-2.5032603363636365,1.7745734882720745,1.703999515715251,0.9173435266688263,2,395,-1.5993795332042406,8.10048540778639
980,Ba3Sn2O7,Ba3Sn2O7_Va_O1,1.8136,-2.668890004166667,2.0470090583045017,2.0293343475276915,0.9183590303185518,2,395,-1.538575818365933,8.630710796719814
981,Ba3Sn2O7,Ba3Sn2O7_Va_O2,1.8136,-2.668890004166667,1.5845935952348356,1.2995311952614723,1.8672103080387077,2,323,-1.538575818365933,7.801442891722393
982,Ba3Sn2O7,Ba3Sn2O7_Va_O3,1.8136,-2.668890004166667,2.126196563023328,1.854566969926319,0.8958231037631008,2,431,-1.538575818365933,8.310895297542784
983,BaCeO3,BaCeO3_Va_O1,2.8160000000000003,-3.5906097180000005,1.8350108684217412,1.4264059625723655,1.3419628257598664,2,215,-1.974911567461291,8.002971569467428
984,BaCeO3,BaCeO3_Va_O2,2.8160000000000003,-3.5906097180000005,1.810524567323138,1.4759702902994876,1.307034937595119,2,359,-1.974911567461291,8.269712730150964
985,BaGa4O7,BaGa4O7_Va_O1,2.4256,-2.486273411249999,2.184562762634154,3.418343293318623,-0.0165159549024598,2,287,-1.8812876656363955,7.3717408397519
986,BaGa4O7,BaGa4O7_Va_O2,2.4256,-2.486273411249999,2.031120713759927,2.3815695472863627,1.6168960199234532,2,263,-1.8812876656363955,6.805355914270454
987,BaGa4O7,BaGa4O7_Va_O3,2.4256,-2.486273411249999,2.2079276758982274,2.430248638420524,1.7129957041069055,2,251,-1.8812876656363955,6.016028193669821
988,BaGeO3,BaGeO3_Va_O1,3.4095,-2.6960020335,2.0186865948217916,1.490996637447907,1.093834882849702,2,71,-1.502819088333178,6.809273711072201
989,BaGeO3,BaGeO3_Va_O2,3.4095,-2.6960020335,2.0131570978094837,1.4936078308699072,2.0705808488734525,2,95,-1.502819088333178,6.724171674902124
990,BaGeO3,BaGeO3_Va_O3,3.4095,-2.6960020335,2.316511368749405,2.730229943585275,-0.3786628025515486,2,119,-1.502819088333178,9.02602877405912
991,BaO,BaO_Va_O1,1.8639,-2.8236447624999994,0.8900000000000002,1.0286716207655016,2.9252624358033597,2,63,-2.8403280769497066,10.180656153899415
992,BaSnO3,BaSnO3_Va_O1,0.7016,-2.5874686660000004,2.0966666666666667,2.0251399631200595,0.9738611304427298,2,134,-1.538575818365933,8.35001700950275
993,BeAl2O4,BeAl2O4_Va_O1,6.2674,-3.3529182539285713,2.0969475100120025,2.331450092422872,1.8391626278048343,2,79,-2.8945619964631555,9.67417202478343
994,BeAl2O4,BeAl2O4_Va_O2,6.2674,-3.3529182539285713,2.0443506054519656,2.945332819624798,2.4584492320133315,2,95,-2.8945619964631555,9.605088549317703
995,BeAl2O4,BeAl2O4_Va_O3,6.2674,-3.3529182539285713,2.051983358903639,2.6570320590633525,1.8279539988484736,2,111,-2.8945619964631555,10.242105907222932
996,BeO,BeO_Va_O1,7.4735,-3.1028558024999997,1.7045243414171556,2.56383046489316,2.148476243436656,2,299,-3.156179192239042,12.272995096389756
997,Bi2O3,Bi2O3_Va_O1,2.1518000000000006,-1.6417272149999995,2.5534711302971105,2.572681787528063,-1.071147094963401,2,143,-0.9858147743813158,5.558325515459918
998,Bi2O3,Bi2O3_Va_O2,2.1518000000000006,-1.6417272149999995,2.5818292627200585,2.4718292317832677,-1.038908422779985,2,191,-0.9858147743813158,4.878119841026061
999,Bi2O3,Bi2O3_Va_O3,2.1518000000000006,-1.6417272149999995,2.523204218589346,2.561136419992206,-1.3372063484430965,2,239,-0.9858147743813158,6.196910505177226
1000,BiAsO4,BiAsO4_Va_O1,3.2501,-1.766119035,2.7975842130139705,2.621805659606698,-1.833638296065276,2,95,-0.6589084382122885,4.753785643565951
1001,BiAsO4,BiAsO4_Va_O2,3.2501,-1.766119035,2.758464278013782,2.928444901237197,-2.334013098036246,2,127,-0.6589084382122885,4.837637163281143
1002,BiAsO4,BiAsO4_Va_O3,3.2501,-1.766119035,2.758574603219192,2.592039016935125,-0.4600513502746,2,159,-0.6589084382122885,4.608425725556469
1003,BiAsO4,BiAsO4_Va_O4,3.2501,-1.766119035,2.7653769057530555,2.781303980765942,-1.8870026133493496,2,191,-0.6589084382122885,4.745521239119133
1004,BiBO3,BiBO3_Va_O1,2.9598,-2.2904667498333326,2.454892262595023,3.678526623688129,-1.711880954804211,2,287,-0.9858147743813158,7.178967174067419
1005,BiBO3,BiBO3_Va_O2,2.9598,-2.2904667498333326,2.5504895340269664,3.646173626502017,-0.3661063692983313,2,383,-0.9858147743813158,7.134707127284747
1006,BiBO3,BiBO3_Va_O3,2.9598,-2.2904667498333326,2.5259785030950317,3.6372535860496025,-0.4171236329752266,2,479,-0.9858147743813158,7.056489063180471
1009,BiSbO4,BiSbO4_Va_O1,2.7211999999999996,-1.8414490133333337,2.7621815566760333,2.536388998142183,-1.004647163372259,2,63,-0.5208045461292565,5.114989514248197
1010,BiSbO4,BiSbO4_Va_O2,2.7211999999999996,-1.8414490133333337,2.730940198763093,2.404865647399249,-0.5709323633857815,2,95,-0.5208045461292565,6.3098698243598115
1011,Ca(AsO3)2,Ca(AsO3)2_Va_O1,3.5512,-2.229921160000001,2.6133333333333333,2.5382287646651127,-0.7422423101759835,2,242,-0.6589084382122885,7.294805206234247
1012,Ca(SbO3)2,Ca(SbO3)2_Va_O1,2.819,-2.3709468211111124,2.5700000000000003,2.179507565466953,0.6167091292496201,2,242,-0.5208045461292565,6.554428525241038
1013,Ca2GeO4,Ca2GeO4_Va_O1,3.5397999999999996,-2.9902279757142853,1.8187175870527823,1.6975885421144523,2.374657580528925,2,103,-1.502819088333178,8.564774886631373
1014,Ca2GeO4,Ca2GeO4_Va_O2,3.5397999999999996,-2.9902279757142853,1.9067559486019268,1.524341258968782,1.382521099187258,2,107,-1.502819088333178,8.235017314762832
1015,Ca2GeO4,Ca2GeO4_Va_O3,3.5397999999999996,-2.9902279757142853,1.8443538481348536,2.0001051572391737,2.7353940370236365,2,111,-1.502819088333178,8.377000608051688
1016,Ca2PbO4,Ca2PbO4_Va_O1,1.5421000000000005,-2.551106224285714,1.8408434446115292,1.4609270112128203,1.5236901587510694,2,299,-0.2712847561180753,9.019602615049275
1017,Ca2PbO4,Ca2PbO4_Va_O2,1.5421000000000005,-2.551106224285714,2.154032626403501,1.5856301589729718,0.6542652981446491,2,419,-0.2712847561180753,7.795731607548976
1018,Ca2Sb2O7,Ca2Sb2O7_Va_O1,1.9044000000000008,-2.5944479686363637,2.456497016766801,2.7728875055574296,-0.3275111320842749,2,255,-0.5208045461292565,7.364202309420018
1019,Ca2Sb2O7,Ca2Sb2O7_Va_O2,1.9044000000000008,-2.5944479686363637,2.4988791358902342,2.9941408148235684,-0.0681265985424768,2,287,-0.5208045461292565,6.698917746678508
1020,Ca2Sb2O7,Ca2Sb2O7_Va_O3,1.9044000000000008,-2.5944479686363637,2.0475663985212806,1.6521068381754258,1.336920340558009,2,351,-0.5208045461292565,7.447399000495166
1021,Ca2SiO4,Ca2SiO4_Va_O1,4.253,-3.4766319846428573,1.8885247453887923,1.8762993523597489,2.202152770587737,2,119,-2.356834901289411,8.683275683754719
1022,Ca2SiO4,Ca2SiO4_Va_O2,4.253,-3.4766319846428573,1.794554724261243,2.1087456067238777,3.1228383545018805,2,143,-2.356834901289411,9.013847868393244
1023,Ca2SiO4,Ca2SiO4_Va_O3,4.253,-3.4766319846428573,1.8128060079352744,2.2717234534008717,3.571850884814204,2,167,-2.356834901289411,8.844443502787929
1024,Ca2Sn3O8,Ca2Sn3O8_Va_O3,2.5858,-2.5545313888461525,2.1800859998807605,1.8137598305077427,1.3771977718308386,2,103,-1.538575818365933,8.123770875523004
1025,Ca2SnO4,Ca2SnO4_Va_O1,2.841899999999999,-2.886048206428571,1.7850900552447395,1.4545719027830912,2.3386822088842143,2,299,-1.538575818365933,9.265605158345334
1026,Ca2SnO4,Ca2SnO4_Va_O2,2.841899999999999,-2.886048206428571,2.048321038806505,1.641962653738677,1.3306304272926432,2,419,-1.538575818365933,9.32615717718792
1027,CaAl4O7,CaAl4O7_Va_O1,4.1142,-3.4639722058333335,2.088177094032116,3.144216966527723,0.973748094420283,2,167,-2.8945619964631555,7.913433517721903
1028,CaAl4O7,CaAl4O7_Va_O2,4.1142,-3.4639722058333335,2.1039549337889567,2.138266166770475,3.1098572757796186,2,215,-2.8945619964631555,6.708269720611802
1029,CaAl4O7,CaAl4O7_Va_O3,4.1142,-3.4639722058333335,1.963616567386678,2.110231573195404,2.065083538233176,2,287,-2.8945619964631555,7.285776230820881
1030,CaGa4O7,CaGa4O7_Va_O2,2.6787,-2.506107837916666,2.192568473700708,2.287998240434402,1.6261113110675054,2,63,-1.8812876656363955,6.484378121505419
1031,CaGa4O7,CaGa4O7_Va_O3,2.6787,-2.506107837916666,2.099390967427051,2.15246393080537,1.0718221455549772,2,79,-1.8812876656363955,6.607956026713236
1032,CaGa4O7,CaGa4O7_Va_O4,2.6787,-2.506107837916666,2.222047636805791,3.094619766232644,-0.1816966149207199,2,95,-1.8812876656363955,7.362839847006367
1033,CaIn2O4,CaIn2O4_Va_O1,2.0752,-2.394796169285714,2.0342771754084517,1.5120940085150172,1.4254280145193088,2,447,-1.5993795332042406,7.078493802250373
1034,CaO,CaO_Va_O1,3.5479,-3.3060156124999995,1.0,1.2018086062036886,3.9617531909655592,2,63,-3.2905001259273035,11.020274752984378
1035,CaSnO3,CaSnO3_Va_O1,3.068,-2.6796842760000006,2.1469451706387996,1.633967709954644,1.37999702968719,2,269,-1.538575818365933,8.156731975870434
1036,Cs2BeO2,Cs2BeO2_Va_O1,2.8190999999999997,-2.0228830126724127,1.184602843015307,2.0400287921043465,3.0195283588234,2,479,-1.793018636425102,8.076469897684353
1037,Cs2BeO2,Cs2BeO2_Va_O2,2.8190999999999997,-2.0228830126724127,1.0609972061391637,1.14828054545211,4.8084594945218,2,455,-1.793018636425102,5.703125673169486
1038,Cs2CeO3,Cs2CeO3_Va_O1,2.5233,-2.6745016659770116,1.3420881524295536,1.3705822028184516,1.7718195463981423,2,431,-1.793018636425102,8.191705145895765
1039,Cs2CeO3,Cs2CeO3_Va_O2,2.5233,-2.6745016659770116,1.2425705671637837,0.9863841571496758,2.018650460862878,2,359,-1.793018636425102,5.551896443868688
1040,Cs2PbO2,Cs2PbO2_Va_O1,1.8019,-1.4864209311724128,1.5820424991693416,1.9661133941325843,1.319489954298322,2,287,-1.1369603723458594,7.636500271441571
1041,Cs2PbO2,Cs2PbO2_Va_O2,1.8019,-1.4864209311724128,1.2496640479790222,1.2824712414129944,2.390027700681259,2,323,-1.1369603723458594,6.967422446879272
1042,Cs2PbO2,Cs2PbO2_Va_O3,1.8019,-1.4864209311724128,1.2862496947130024,1.261164042280456,2.3275770959685738,2,305,-1.1369603723458594,6.92512029235859
1043,Cs2PbO2,Cs2PbO2_Va_O4,1.8019,-1.4864209311724128,1.6736420949363475,1.9000637602392312,1.579954318093732,2,359,-1.1369603723458594,6.8562084848613845
1044,Cs2PbO3,Cs2PbO3_Va_O1,1.4961,-1.5408556518103451,1.485559247551684,0.8198797051437268,1.5944419662124112,2,287,-0.2712847561180753,5.3081063041045455
1045,Cs2PbO3,Cs2PbO3_Va_O2,1.4961,-1.5408556518103451,1.7935254477273914,1.5928734516564451,0.1886966471428559,2,431,-0.2712847561180753,7.096128202837028
1046,Cs2SnO3,Cs2SnO3_Va_O1,2.5588999999999995,-1.9013199843103443,1.7187298013467722,1.8796787826834027,0.6592790265490731,2,431,-1.538575818365933,7.881367467180427
1047,Cs2SnO3,Cs2SnO3_Va_O2,2.5588999999999995,-1.9013199843103443,1.3977195288843,0.925032086120494,2.698343604647466,2,359,-1.538575818365933,5.8228823142283215
1048,Cs3AlO3,Cs3AlO3_Va_O1,2.5495,-2.1623344291133013,1.0787764553572217,1.0024672997306396,3.879985955266264,2,91,-1.793018636425102,5.864722689595725
1049,Cs3AlO3,Cs3AlO3_Va_O2,2.5495,-2.1623344291133013,1.301673256948105,2.018271449934742,3.118818702218517,2,107,-1.793018636425102,7.700661613187412
1050,Cs3AlO3,Cs3AlO3_Va_O3,2.5495,-2.1623344291133013,1.1636077212086804,1.0139666307100113,3.979260875114659,2,111,-1.793018636425102,5.774548767092202
1051,Cs3As5O9,Cs3As5O9_Va_O2,3.0533,-1.813479687870183,1.784772160448136,2.190229088224017,1.5530902640851243,2,203,-1.150088447140494,5.562470450827536
1052,Cs3BiO3,Cs3BiO3_Va_O1,3.1239,-1.6135073416133006,1.2583858705521815,1.2319948434174932,2.2151650783418657,2,223,-0.9858147743813158,6.037593097795638
1053,Cs3GaO3,Cs3GaO3_Va_O1,2.7652,-1.7918229108990151,1.152682345968999,1.1952467384897871,2.6585870210035263,2,111,-1.793018636425102,6.358658159918806
1054,Cs3GaO3,Cs3GaO3_Va_O2,2.7652,-1.7918229108990151,1.368666003408448,2.0094397544209035,1.5103695039975775,2,107,-1.793018636425102,7.8551311097388865
1055,Cs3GaO3,Cs3GaO3_Va_O3,2.7652,-1.7918229108990151,1.147523410796776,1.209305153216084,2.6391238433890143,2,103,-1.793018636425102,6.0851589087086655
1056,Cs3InO3,Cs3InO3_Va_O1,2.162,-1.6228296433990148,1.0806742389079749,0.8131442807694521,2.6184621975611218,2,95,-1.5993795332042406,6.017511959359828
1057,Cs3InO3,Cs3InO3_Va_O2,2.162,-1.6228296433990148,1.0714780534549535,0.8084876745712968,2.6152465035622003,2,103,-1.5993795332042406,6.479165650916062
1058,Cs3InO3,Cs3InO3_Va_O3,2.162,-1.6228296433990148,1.291208814847411,1.5622893014384072,1.9479313795529152,2,111,-1.5993795332042406,7.130850393530958
1059,Cs3TlO3,Cs3TlO3_Va_O1,1.721,-1.3588165867323485,1.0177236782920165,1.016817471577232,1.3514328854371094,2,111,-0.5778080287901701,5.924031420002907
1060,Cs3TlO3,Cs3TlO3_Va_O2,1.721,-1.3588165867323485,1.2191740627970171,1.5381944522650497,0.6941590089551788,2,107,-0.5778080287901701,6.113843220837974
1061,Cs3TlO3,Cs3TlO3_Va_O3,1.721,-1.3588165867323485,1.0343447315919527,0.9991333689248044,1.3393566846161322,2,103,-0.5778080287901701,5.46080913259094
1062,Cs6Ge2O7,Cs6Ge2O7_Va_O1,3.0572999999999997,-1.955927745505748,1.8372139095871296,2.6132137682028223,0.9727602042355604,2,287,-1.502819088333178,9.522886974733561
1063,Cs6Ge2O7,Cs6Ge2O7_Va_O2,3.0572999999999997,-1.955927745505748,1.308838888828172,1.5181205732351406,2.3549337305776494,2,359,-1.502819088333178,7.078111615743486
1064,Cs6Ge2O7,Cs6Ge2O7_Va_O3,3.0572999999999997,-1.955927745505748,1.2737514387069315,1.557822307412096,2.3127457671821436,2,347,-1.502819088333178,7.196227189896481
1065,Cs6Si2O7,Cs6Si2O7_Va_O1,3.4442,-2.38790383483908,1.307232590920452,1.9356571815195789,3.400453375152022,2,275,-1.793018636425102,7.792482126379907
1066,Cs6Si2O7,Cs6Si2O7_Va_O2,3.4442,-2.38790383483908,1.9097821348071764,3.5076203644962196,1.3418678511074211,2,227,-1.793018636425102,11.130583212052537
1067,Cs6Si2O7,Cs6Si2O7_Va_O3,3.4442,-2.38790383483908,1.3401086576177912,1.8835480322680136,3.46742063153314,2,359,-1.793018636425102,7.6073247397604575
1068,Cs6Si2O7,Cs6Si2O7_Va_O4,3.4442,-2.38790383483908,1.3223868432825878,1.8399504589532645,3.494978347532891,2,323,-1.793018636425102,7.587047638742996
1069,CsBO2,CsBO2_Va_O1,3.9296,-2.6054637117744255,1.8364608101788675,4.217811019469719,1.2963684222255822,2,131,-1.793018636425102,11.86915449376016
1070,CsBO2,CsBO2_Va_O2,3.9296,-2.6054637117744255,1.3811742318426656,2.164494106944802,5.047833740978778,2,143,-1.793018636425102,7.808447220764524
1071,CsSbO2,CsSbO2_Va_O1,2.3945000000000003,-1.8573301069827588,1.8755274292078843,2.790023883755725,0.2901362657081989,2,383,-1.2369755737418262,8.687072172369792