,formula,full_name,band_gap,formation_energy,nn_ave_eleneg,o2p_center_from_vbm,vacancy_formation_energy,charge,vacancy_index,vr_max,Eb_sum
405,Sb2PbO6,Sb2PbO6_Va_O1,1.8615999999999993,-1.900305225555556,2.791666666666667,3.264053158069724,4.266536340000025,0,71,-0.5208045461292565,6.035169602535654
406,SbAsO3,SbAsO3_Va_O1,3.257,-1.6997547515000004,2.6617779987008463,3.233004375837125,4.052682010000021,0,71,-1.150088447140494,8.25137348590599
407,SbAsO3,SbAsO3_Va_O2,3.257,-1.6997547515000004,2.5758892938962794,3.120973725974879,4.062129160000049,0,95,-1.150088447140494,7.497520622090304
408,SbAsO3,SbAsO3_Va_O3,3.257,-1.6997547515000004,2.6776114751845843,3.238784307377601,3.8405594299999937,0,119,-1.150088447140494,7.753080561553481
413,SiO2,SiO2_Va_O1,5.785699999999999,-3.267179193333333,2.67,2.858249381991186,5.84099236999999,0,215,-2.356834901289411,9.635406577802385
417,SnB4O7,SnB4O7_Va_O1,3.4541000000000004,-2.6146258118055554,2.4866818536794777,4.7280040897409,7.306844840000062,0,107,-1.454625234810769,11.984572548737273
418,SnB4O7,SnB4O7_Va_O2,3.4541000000000004,-2.6146258118055554,2.3909703478304167,5.7315294788507956,7.681961060000171,0,143,-1.454625234810769,16.253512582486607
419,SnB4O7,SnB4O7_Va_O3,3.4541000000000004,-2.6146258118055554,2.4263919365401607,4.843565196622258,6.986340179999965,0,179,-1.454625234810769,11.898018518984987
420,SnB4O7,SnB4O7_Va_O4,3.4541000000000004,-2.6146258118055554,2.4685555713397687,4.650600397134114,6.595873240000069,0,215,-1.454625234810769,11.521792531413686
421,SnO2,SnO2_Va_O1,0.8614000000000002,-2.107481543333334,2.6999999999999997,2.689198165456612,4.78985756999999,0,71,-1.538575818365933,7.137871435101152
422,Sr(AsO3)2,Sr(AsO3)2_Va_O1,3.4882999999999997,-2.233057519074074,2.605,2.4830881013655195,4.617377530000008,0,71,-0.6589084382122885,7.0786409613724395
423,Sr(BO2)2,Sr(BO2)2_Va_O1,4.9695,-3.1235381182142854,2.0343749131611357,2.1615546231003835,7.1470932200001105,0,167,-2.1905056483979153,8.015795760953274
424,Sr(BO2)2,Sr(BO2)2_Va_O2,4.9695,-3.1235381182142854,2.212165616451734,4.007286451289397,6.446952359999964,0,143,-2.1905056483979153,11.598200676403653
425,Sr(BiO2)2,Sr(BiO2)2_Va_O1,2.4357,-2.1114339966666664,2.324548257724588,2.5410450963922,3.693859309999775,0,191,-0.9858147743813158,6.090300941676578
426,Sr(BiO2)2,Sr(BiO2)2_Va_O2,2.4357,-2.1114339966666664,2.029107554714632,1.6113191240651374,3.728578889999776,0,239,-0.9858147743813158,6.080905588667724
427,Sr(BiO2)2,Sr(BiO2)2_Va_O3,2.4357,-2.1114339966666664,1.9921489585095735,1.479765478436082,4.22955231000004,0,287,-0.9858147743813158,5.9676524714118635
428,Sr(BiO2)2,Sr(BiO2)2_Va_O4,2.4357,-2.1114339966666664,2.4698862172393645,2.4288303816261245,4.060117590000013,0,335,-0.9858147743813158,4.959525829987516
429,Sr(SbO3)2,Sr(SbO3)2_Va_O1,2.9061999999999997,-2.3865939085185186,2.561666666666667,2.035490482256219,4.463854070000034,0,71,-0.5208045461292565,6.343665406811406
430,Sr2CeO4,Sr2CeO4_Va_O2,2.8113,-3.4935232297619043,1.6160149065174287,1.3414551932417476,5.72537125999987,0,419,-1.974911567461291,8.46002196578819
431,Sr2GeO4,Sr2GeO4_Va_O1,3.5318999999999994,-2.9120691372619047,2.0119919774690533,1.7370118308883735,4.227263049999928,0,63,-1.502819088333178,7.235460606090049
432,Sr2GeO4,Sr2GeO4_Va_O2,3.5318999999999994,-2.9120691372619047,1.801454504713544,1.8924632325639064,4.824244809999991,0,79,-1.502819088333178,8.141239563346236
433,Sr2GeO4,Sr2GeO4_Va_O3,3.5318999999999994,-2.9120691372619047,1.84635061077502,1.8548873432259887,4.750340049999986,0,95,-1.502819088333178,8.18156133023514
434,Sr2GeO4,Sr2GeO4_Va_O4,3.5318999999999994,-2.9120691372619047,1.849858733985163,1.9675209191440468,4.6458462900000175,0,111,-1.502819088333178,7.899337960355683
435,Sr2PbO4,Sr2PbO4_Va_O1,1.4673000000000005,-2.466891851190476,1.8333932892028373,1.2909229458646654,3.5028222400000093,0,299,-0.2712847561180753,8.44290674797818
436,Sr2Sb2O7,Sr2Sb2O7_Va_O1,1.5038,-2.5705959062121213,2.459055399322205,2.6840017410813624,4.252368809999902,0,255,-0.5208045461292565,7.052332205944591
437,Sr2Sb2O7,Sr2Sb2O7_Va_O2,1.5038,-2.5705959062121213,2.4560691981034015,2.865612737955333,4.531309609999775,0,287,-0.5208045461292565,6.687254863333671
438,Sr2Sb2O7,Sr2Sb2O7_Va_O3,1.5038,-2.5705959062121213,2.013854602303889,1.7970500046544078,4.075847940000026,0,351,-0.5208045461292565,6.886168050776487
439,Sr2SiO4,Sr2SiO4_Va_O1,4.5842,-3.422863758690476,1.8220442858075871,2.227516599873563,6.618549609999954,0,63,-2.356834901289411,8.505475112146867
440,Sr2SiO4,Sr2SiO4_Va_O2,4.5842,-3.422863758690476,1.8141372600035992,2.1815756368674126,6.662818860000025,0,79,-2.356834901289411,8.55670638940976
441,Sr2SiO4,Sr2SiO4_Va_O3,4.5842,-3.422863758690476,1.7630523901393695,2.2575793232741708,6.732053009999968,0,95,-2.356834901289411,8.857948937383519
442,Sr2SiO4,Sr2SiO4_Va_O4,4.5842,-3.422863758690476,1.9822723634755313,2.003378364216619,6.401802409999968,0,111,-2.356834901289411,7.779044420060947
443,Sr2SnO4,Sr2SnO4_Va_O1,2.8567,-2.7861135097619045,1.6933973178721695,1.243837549095172,5.170144650000006,0,79,-1.538575818365933,7.7397681979101085
444,Sr2SnO4,Sr2SnO4_Va_O2,2.8567,-2.7861135097619045,1.9692086761336776,2.139614610681748,4.831907209999949,0,95,-1.538575818365933,9.188272310832907
445,Sr2SnO4,Sr2SnO4_Va_O3,2.8567,-2.7861135097619045,1.983597351297278,1.9553647811038304,5.074544049999995,0,111,-1.538575818365933,9.165865035081499
446,Sr3(BO3)2,Sr3(BO3)2_Va_O1,4.5526,-3.2455647325757573,1.7979040067844871,2.360448655823145,7.177416160000016,0,65,-2.1905056483979153,8.6649863204034
447,SrAl4O7,SrAl4O7_Va_O1,3.8043,-3.464532970555555,2.0686637973355024,3.3886414129236364,7.318220550000101,0,167,-2.8945619964631555,7.9148942845019725
448,SrAl4O7,SrAl4O7_Va_O2,3.8043,-3.464532970555555,2.1085699467055883,2.2704895205259694,6.7302501699999855,0,215,-2.8945619964631555,6.431531718992251
449,SrAl4O7,SrAl4O7_Va_O3,3.8043,-3.464532970555555,1.937806108722431,2.331783423377374,6.961667209999982,0,287,-2.8945619964631555,7.198433459228888
450,SrAl4O7,SrAl4O7_Va_O4,3.8043,-3.464532970555555,2.0585031471306294,2.344349601178077,6.7579584300000395,0,263,-2.8945619964631555,6.529944638627582
451,SrBe3O4,SrBe3O4_Va_O1,4.028600000000001,-3.1129027464583334,1.6533110910502504,2.5581943510658087,8.216058770000027,0,63,-3.067823794114626,10.412425645353787
452,SrBe3O4,SrBe3O4_Va_O2,4.028600000000001,-3.1129027464583334,1.5282350663416238,1.7171848755800505,7.541207660000007,0,47,-3.067823794114626,8.355501542311659
456,SrGa4O7,SrGa4O7_Va_O1,2.5694999999999997,-2.5024807226388877,2.182301379140124,2.3339691379819514,4.526486879999888,0,143,-1.8812876656363955,6.286763717138366
457,SrGa4O7,SrGa4O7_Va_O2,2.5694999999999997,-2.5024807226388877,2.2095961790805183,2.3143721592175077,4.434567630000069,0,191,-1.8812876656363955,6.223637550930445
458,SrGa4O7,SrGa4O7_Va_O3,2.5694999999999997,-2.5024807226388877,2.044322650399085,2.234831930429887,4.8117447000000855,0,287,-1.8812876656363955,6.952575013353426
459,SrGa4O7,SrGa4O7_Va_O4,2.5694999999999997,-2.5024807226388877,2.1994684574528893,3.2233249975748306,5.139716369999983,0,263,-1.8812876656363955,7.351101365958885
460,SrIn2O4,SrIn2O4_Va_O1,1.8881000000000008,-2.357273833095238,1.975956619531696,1.8071453573751548,5.0753722799999625,0,47,-1.5993795332042406,8.414530797562097
461,SrIn2O4,SrIn2O4_Va_O2,1.8881000000000008,-2.357273833095238,1.9731408891390827,1.5315136840051684,5.1153110299999955,0,59,-1.5993795332042406,8.816721409760925
462,SrIn2O4,SrIn2O4_Va_O3,1.8881000000000008,-2.357273833095238,2.1229562814465397,1.4984038828330914,4.866963349999944,0,71,-1.5993795332042406,7.989737324854365
463,SrIn2O4,SrIn2O4_Va_O4,1.8881000000000008,-2.357273833095238,2.0210026484402803,1.630761717052397,4.9989036199999735,0,83,-1.5993795332042406,8.525169987449821
464,SrO,SrO_Va_O1,3.1607000000000003,-3.077090665833333,0.9500000000000002,0.908791266440336,7.1794223499999905,0,63,-3.067823794114626,10.455647588229251
465,SrSnO3,SrSnO3_Va_O1,1.9664,-2.637945564833333,2.116172940657988,1.882989803022736,4.92482370999995,0,287,-1.538575818365933,8.394890781692196
466,SrSnO3,SrSnO3_Va_O2,1.9664,-2.637945564833333,2.1240512179988422,1.9014707125479116,4.92797100999986,0,359,-1.538575818365933,8.319674043297496
467,Tl2SnO3,Tl2SnO3_Va_O1,1.0258000000000005,-1.5003471177777783,2.3086155511875828,3.3593190693101445,4.663410020000024,0,63,-0.8674893634033586,8.94145001832899
468,Tl2SnO3,Tl2SnO3_Va_O2,1.0258000000000005,-1.5003471177777783,2.269492997378121,3.0497117872618964,4.260191350000023,0,79,-0.8674893634033586,7.259729843659802
469,Tl2SnO3,Tl2SnO3_Va_O3,1.0258000000000005,-1.5003471177777783,2.1350711302464656,2.7594583476664427,3.502015750000007,0,95,-0.8674893634033586,6.551933446707559
470,Tl3AsO4,Tl3AsO4_Va_O1,2.3887999999999994,-1.43094984375,2.189259695498695,2.9767867868738405,2.9377982199999995,0,191,-0.6589084382122885,5.291070158818089
471,Tl3AsO4,Tl3AsO4_Va_O2,2.3887999999999994,-1.43094984375,2.276416732341168,3.165970592802908,3.1999532999999563,0,179,-0.6589084382122885,5.542686003106007
472,Tl3BO3,Tl3BO3_Va_O1,1.2292999999999998,-1.6481950663095244,2.065470055230187,3.884383397262264,5.23618161999992,0,279,-0.8674893634033586,7.723436994727074
473,Tl6Si2O7,Tl6Si2O7_Va_O1,1.2203999999999997,-1.905314270666666,2.1098998001661045,3.5557461656266147,5.26106272000005,0,239,-0.8674893634033586,7.227384164165747
474,Tl6Si2O7,Tl6Si2O7_Va_O2,1.2203999999999997,-1.905314270666666,2.2174035543785906,4.885201324285101,5.684946969999951,0,175,-0.8674893634033586,10.815256078510286
475,Tl6Si2O7,Tl6Si2O7_Va_O3,1.2203999999999997,-1.905314270666666,2.0677458606441865,3.5593257985599083,5.239845899999986,0,223,-0.8674893634033586,7.303040594737457
476,TlSbO3,TlSbO3_Va_O1,2.3711,-1.7144332416666668,2.5046166686920737,3.2383319675300344,4.304137290000094,0,179,-0.5208045461292565,5.988263464409254
477,Al2Ge2O7,Al2Ge2O7_Va_O1,3.2978,-2.702367327272727,2.406341895839076,3.103427181710611,3.2180111249679175,1,191,-1.502819088333178,8.978846208475446
478,Al2Ge2O7,Al2Ge2O7_Va_O2,3.2978,-2.702367327272727,2.3974576458626684,3.101687405729366,3.139259375311791,1,255,-1.502819088333178,9.003316704304606
479,Al2Ge2O7,Al2Ge2O7_Va_O3,3.2978,-2.702367327272727,2.72604428315262,2.596100957120228,2.8772777273070815,1,287,-1.502819088333178,7.530638176666356
480,Al2Ge2O7,Al2Ge2O7_Va_O4,3.2978,-2.702367327272727,2.6131783167219456,2.043769290199058,3.4321292086325075,1,351,-1.502819088333178,6.355127356099725
481,Al2O3,Al2O3_Va_O1,6.039299999999999,-3.426551008000001,2.224895215865955,2.497321494687122,4.564112179466871,1,269,-2.8945619964631555,10.282703088187338
482,Al2PbO4,Al2PbO4_Va_O1,3.8921,-2.89378359,2.273300437305284,2.391473835296565,4.166058734340394,1,191,-1.1369603723458594,6.759401088167275
483,Al2PbO4,Al2PbO4_Va_O2,3.8921,-2.89378359,2.2577006846753074,2.127479261236284,4.512556241284181,1,239,-1.1369603723458594,6.631447912545502
484,Al2PbO4,Al2PbO4_Va_O3,3.8921,-2.89378359,2.271189956610316,2.3477590408505455,4.48343107357856,1,335,-1.1369603723458594,6.428958272437237
485,Al4Bi2O9,Al4Bi2O9_Va_O1,2.6141999999999994,-2.857885394000002,2.3848563900027937,2.7629914986258335,2.80081104690092,1,191,-0.9858147743813158,7.71622170503863
486,Al4Bi2O9,Al4Bi2O9_Va_O2,2.6141999999999994,-2.857885394000002,2.2923045988216,2.525664865147771,4.6620565240696425,1,239,-0.9858147743813158,7.862173880733885
487,Al4Bi2O9,Al4Bi2O9_Va_O3,2.6141999999999994,-2.857885394000002,2.3575196255115665,2.820929043431028,3.295307986894666,1,359,-0.9858147743813158,6.933625784843771
488,Al4Bi2O9,Al4Bi2O9_Va_O4,2.6141999999999994,-2.857885394000002,2.177139080811319,2.1832794803488595,4.812611687940505,1,311,-0.9858147743813158,5.33293635771998
489,AlAsO4,AlAsO4_Va_O1,4.3858,-2.444837554166667,2.6675,2.1081297060123902,2.968579729127031,1,215,-0.6589084382122885,5.45312733045218
490,AlSbO4,AlSbO4_Va_O1,1.722599999999999,-2.5433669000000005,2.597103509660969,2.911445950223812,2.765454978441495,1,191,-0.5208045461292565,7.655444563366199
491,AlSbO4,AlSbO4_Va_O2,1.722599999999999,-2.5433669000000005,2.672896490339031,3.6551000107041887,2.222511203879378,1,159,-0.5208045461292565,7.110983042173892
492,As2O3,As2O3_Va_O2,3.3312,-1.6290845505,2.6515650881606163,3.61912449772006,1.31408610750172,1,383,-1.150088447140494,7.081817293565289
493,As2O3,As2O3_Va_O3,3.3312,-1.6290845505,2.6571443525075127,3.7018856453418607,1.4107231307089465,1,479,-1.150088447140494,7.131939691002804
494,As2Pb3O8,As2Pb3O8_Va_O1,3.2885999999999997,-1.7352351134615382,2.6860742046445267,2.7630077039862124,1.2027741832672445,1,251,-0.6589084382122885,5.121768205399355
495,As2Pb3O8,As2Pb3O8_Va_O2,3.2885999999999997,-1.7352351134615382,2.7042365259736325,2.9586236071888488,1.2012910418642972,1,323,-0.6589084382122885,5.292227115333775
496,As2Pb3O8,As2Pb3O8_Va_O3,3.2885999999999997,-1.7352351134615382,2.7163595941283405,2.9774057862274157,1.2431563215949155,1,395,-0.6589084382122885,5.41426715557764
497,As2Pb3O8,As2Pb3O8_Va_O4,3.2885999999999997,-1.7352351134615382,2.768647000263188,2.651400752553627,1.271969204076418,1,467,-0.6589084382122885,4.657231255072221
498,As2PbO4,As2PbO4_Va_O1,2.6284999999999994,-1.6492657325,2.5488496637752465,3.6606861531341286,1.1037836821811435,1,63,-1.1369603723458594,7.063406976418128
499,As2PbO4,As2PbO4_Va_O2,2.6284999999999994,-1.6492657325,2.6503630288382656,3.697726588387933,1.281354054279944,1,79,-1.1369603723458594,7.454334744341565
500,As2PbO4,As2PbO4_Va_O3,2.6284999999999994,-1.6492657325,2.5806582237199267,3.148174099169339,1.70225630724411,1,95,-1.1369603723458594,5.593238558068391
501,As2PbO4,As2PbO4_Va_O4,2.6284999999999994,-1.6492657325,2.695552037046685,3.189222957911923,1.7155616738376476,1,111,-1.1369603723458594,5.783052080110901
502,As2PbO6,As2PbO6_Va_O1,2.1464,-1.7356450333333333,2.8350000000000004,3.7085103290461223,1.4424897564069,1,242,-0.6589084382122885,6.778591273352452
503,B2O3,B2O3_Va_O1,6.3479,-2.79805631,2.522642750980837,3.1894952912738876,4.5550444187799,1,59,-2.1905056483979153,10.962948518045348
504,B2O3,B2O3_Va_O2,6.3479,-2.79805631,2.4919401604235785,3.2111856187427152,4.485200703805055,1,47,-2.1905056483979153,10.872965767798396
505,B4PbO7,B4PbO7_Va_O1,4.158,-2.6473397413888877,2.4960870301019216,4.0909509783768545,3.391608528610109,1,215,-1.1369603723458594,11.85241940185685
506,B4PbO7,B4PbO7_Va_O2,4.158,-2.6473397413888877,2.522918939325306,3.9908693958022026,3.4775825452159213,1,206,-1.1369603723458594,11.663483431560552
507,B4PbO7,B4PbO7_Va_O3,4.158,-2.6473397413888877,2.4117625853743987,5.0308915055261805,2.9354349275538176,1,161,-1.1369603723458594,16.499047971193672
508,B4PbO7,B4PbO7_Va_O4,4.158,-2.6473397413888877,2.564729948085834,3.77814546703765,3.7727323841324423,1,197,-1.1369603723458594,11.765101776696673
509,BAsO4,BAsO4_Va_O1,4.380000000000001,-2.132276382361111,2.7750470596344017,2.9118904601513993,1.2873705210986055,1,215,-0.6589084382122885,7.892895530587905
510,Ba(AsO3)2,Ba(AsO3)2_Va_O1,2.8693999999999997,-2.1914320077777782,2.663833653764642,2.9647492210345696,1.5386453156991615,1,239,-0.6589084382122885,6.7145620356115145
511,Ba(AsO3)2,Ba(AsO3)2_Va_O2,2.8693999999999997,-2.1914320077777782,2.5819066683094225,3.220476701785266,1.2851536958574892,1,335,-0.6589084382122885,6.7064657574518165
512,Ba(AsO3)2,Ba(AsO3)2_Va_O3,2.8693999999999997,-2.1914320077777782,2.5392596779259375,2.3326627298253007,1.3718115244034736,1,431,-0.6589084382122885,4.574380926056954
513,Ba(SbO3)2,Ba(SbO3)2_Va_O1,2.9955999999999996,-2.376871872222223,2.5516666666666667,1.939533526774728,2.3257734908152514,1,242,-0.5208045461292565,6.160432208983011
514,Ba2Bi2O5,Ba2Bi2O5_Va_O1,1.8273,-2.288426511111112,2.062504975269688,2.40781201144093,1.839915464738575,1,95,-0.9858147743813158,6.718001011036649
515,Ba2Bi2O5,Ba2Bi2O5_Va_O2,1.8273,-2.288426511111112,1.8107787739008248,2.100563563987341,2.5641715064059447,1,127,-0.9858147743813158,6.407172956435611
516,Ba2In2O5,Ba2In2O5_Va_O1,0.9603000000000002,-2.424057256666667,1.701871605116176,2.3408683614378414,2.803577545589521,1,179,-1.5993795332042406,6.609085639268365
517,Ba2In2O5,Ba2In2O5_Va_O2,0.9603000000000002,-2.424057256666667,1.815303427119624,1.7951956170136785,2.386453826865254,1,251,-1.5993795332042406,6.927142997205392
518,Ba2SiO4,Ba2SiO4_Va_O1,4.7691,-3.3619786003571424,1.8187115337578652,1.9887997780759203,4.235587240038342,1,239,-2.356834901289411,8.20487484862387
519,Ba2SiO4,Ba2SiO4_Va_O2,4.7691,-3.3619786003571424,1.7501702673414408,2.0510531204351756,4.212611026593015,1,287,-2.356834901289411,8.497103024658102
520,Ba2SiO4,Ba2SiO4_Va_O3,4.7691,-3.3619786003571424,1.9140223485049568,1.8462819252227711,4.28690146859809,1,335,-2.356834901289411,7.666025381102768
521,Ba2SnO4,Ba2SnO4_Va_O1,2.6748,-2.7252458707142857,1.5846067414973888,1.2392503518767148,3.469444126802393,1,89,-1.538575818365933,7.836515734134789
522,Ba2SnO4,Ba2SnO4_Va_O2,2.6748,-2.7252458707142857,2.0113911022161712,2.0533727474190098,2.896080656437488,1,125,-1.538575818365933,8.833712919517737
523,Ba3(AsO4)2,Ba3(AsO4)2_Va_O1,4.0672999999999995,-2.691978154615385,2.3065525755656915,1.8664497423710813,2.0707177023951724,1,188,-0.6589084382122885,5.103407147039576
524,Ba3(AsO4)2,Ba3(AsO4)2_Va_O2,4.0672999999999995,-2.691978154615385,2.1447896290114725,2.1236025483072396,1.8669060505856945,1,350,-0.6589084382122885,6.08669978564136
525,Ba3Sn2O7,Ba3Sn2O7_Va_O1,1.8136,-2.668890004166667,2.0470090583045017,2.0293343475276915,2.8204709785714357,1,395,-1.538575818365933,8.630710796719814
526,Ba3Sn2O7,Ba3Sn2O7_Va_O2,1.8136,-2.668890004166667,1.5845935952348356,1.2995311952614723,3.3501182097964772,1,323,-1.538575818365933,7.801442891722393
527,BaCeO3,BaCeO3_Va_O1,2.8160000000000003,-3.5906097180000005,1.8350108684217412,1.4264059625723655,3.117252769801058,1,215,-1.974911567461291,8.002971569467428
528,BaCeO3,BaCeO3_Va_O2,2.8160000000000003,-3.5906097180000005,1.810524567323138,1.4759702902994876,3.1251180143363237,1,359,-1.974911567461291,8.269712730150964
529,BaGa4O7,BaGa4O7_Va_O1,2.4256,-2.486273411249999,2.184562762634154,3.418343293318623,2.8898694193552057,1,287,-1.8812876656363955,7.3717408397519
530,BaGa4O7,BaGa4O7_Va_O2,2.4256,-2.486273411249999,2.031120713759927,2.3815695472863627,3.5725117855337647,1,263,-1.8812876656363955,6.805355914270454
531,BaGa4O7,BaGa4O7_Va_O3,2.4256,-2.486273411249999,2.2079276758982274,2.430248638420524,3.4637445156588917,1,251,-1.8812876656363955,6.016028193669821
532,BaGa4O7,BaGa4O7_Va_O4,2.4256,-2.486273411249999,2.207244346453633,2.4264080351591204,3.265648159709074,1,215,-1.8812876656363955,6.037747668207942
533,BaGeO3,BaGeO3_Va_O1,3.4095,-2.6960020335,2.0186865948217916,1.490996637447907,2.838170724500455,1,71,-1.502819088333178,6.809273711072201
534,BaGeO3,BaGeO3_Va_O2,3.4095,-2.6960020335,2.0131570978094837,1.4936078308699072,2.831752251157943,1,95,-1.502819088333178,6.724171674902124
535,BaGeO3,BaGeO3_Va_O3,3.4095,-2.6960020335,2.316511368749405,2.730229943585275,2.439628506503587,1,119,-1.502819088333178,9.02602877405912
536,BaO,BaO_Va_O1,1.8639,-2.8236447624999994,0.8900000000000002,1.0286716207655016,4.308322994983372,1,63,-2.8403280769497066,10.180656153899415
537,BeAl2O4,BeAl2O4_Va_O1,6.2674,-3.3529182539285713,2.0969475100120025,2.331450092422872,4.72137746438862,1,79,-2.8945619964631555,9.67417202478343
538,BeAl2O4,BeAl2O4_Va_O2,6.2674,-3.3529182539285713,2.0443506054519656,2.945332819624798,4.785233249283326,1,95,-2.8945619964631555,9.605088549317703
539,BeAl2O4,BeAl2O4_Va_O3,6.2674,-3.3529182539285713,2.051983358903639,2.6570320590633525,4.640185896385134,1,111,-2.8945619964631555,10.242105907222932
540,BeO,BeO_Va_O1,7.4735,-3.1028558024999997,1.7045243414171556,2.56383046489316,5.194772300257529,1,299,-3.156179192239042,12.272995096389756
541,Bi2O3,Bi2O3_Va_O1,2.1518000000000006,-1.6417272149999995,2.5534711302971105,2.572681787528063,1.5949257844881852,1,143,-0.9858147743813158,5.558325515459918