,formula,full_name,band_gap,formation_energy,nn_ave_eleneg,o2p_center_from_vbm,vacancy_formation_energy,charge,vacancy_index,vr_max,Eb_sum
964,Ba(SbO3)2,Ba(SbO3)2_Va_O1,2.9955999999999996,-2.376871872222223,2.5516666666666667,1.939533526774728,0.3355247654794314,2,242,-0.5208045461292565,6.520442958403554
965,Ba2Bi2O5,Ba2Bi2O5_Va_O2,1.8273,-2.288426511111112,1.8107787739008248,2.100563563987341,0.2907639053279491,2,127,-0.9858147743813158,6.733499772066789
966,Ba2Bi2O5,Ba2Bi2O5_Va_O3,1.8273,-2.288426511111112,2.059103547200948,1.833463230597384,-0.1097790104160503,2,143,-0.9858147743813158,6.679895441533968
967,Ba2In2O5,Ba2In2O5_Va_O1,0.9603000000000002,-2.424057256666667,1.701871605116176,2.3408683614378414,1.4095066147646875,2,179,-1.5993795332042406,7.132931584504046
968,Ba2In2O5,Ba2In2O5_Va_O2,0.9603000000000002,-2.424057256666667,1.815303427119624,1.7951956170136785,1.6080459285241928,2,251,-1.5993795332042406,8.829707610153948
969,Ba2In2O5,Ba2In2O5_Va_O3,0.9603000000000002,-2.424057256666667,1.8163577677689784,1.5994690297226244,1.65671032180648,2,323,-1.5993795332042406,10.526483635803851
970,Ba2PbO4,Ba2PbO4_Va_O1,1.3264000000000002,-2.3690410357142855,2.0753768308760643,1.748229577366927,-0.2583727280988024,2,89,-0.2712847561180753,10.14543476868572
971,Ba2PbO4,Ba2PbO4_Va_O2,1.3264000000000002,-2.3690410357142855,1.7175282197657022,1.0928715865474945,0.3645292612183823,2,125,-0.2712847561180753,10.163045461292567
972,Ba2SiO4,Ba2SiO4_Va_O2,4.7691,-3.3619786003571424,1.7501702673414408,2.0510531204351756,2.324037813919991,2,287,-2.356834901289411,4.817703288901193
973,Ba2SiO4,Ba2SiO4_Va_O3,4.7691,-3.3619786003571424,1.9140223485049568,1.8462819252227711,2.648694819059999,2,335,-2.356834901289411,4.817703288901193
974,Ba2SnO4,Ba2SnO4_Va_O1,2.6748,-2.7252458707142857,1.5846067414973888,1.2392503518767148,1.8050454193369556,2,89,-1.538575818365933,10.871613812641748
975,Ba2SnO4,Ba2SnO4_Va_O2,2.6748,-2.7252458707142857,2.0113911022161712,2.0533727474190098,0.8231386704460488,2,125,-1.538575818365933,11.562571471384079
976,Ba3(AsO4)2,Ba3(AsO4)2_Va_O1,4.0672999999999995,-2.691978154615385,2.3065525755656915,1.8664497423710813,0.6177095365547689,2,188,-0.6589084382122885,4.542392469219115
977,Ba3(AsO4)2,Ba3(AsO4)2_Va_O2,4.0672999999999995,-2.691978154615385,2.1447896290114725,2.1236025483072396,-0.3533348416206163,2,350,-0.6589084382122885,2.8456164435692117
978,Ba3In2O6,Ba3In2O6_Va_O1,0.8739999999999997,-2.5032603363636365,1.5027520609857827,1.366161739848722,1.936059858395203,2,251,-1.5993795332042406,10.353569894851633
979,Ba3In2O6,Ba3In2O6_Va_O2,0.8739999999999997,-2.5032603363636365,1.7745734882720745,1.703999515715251,0.9173435266688263,2,395,-1.5993795332042406,10.526483635803851
980,Ba3Sn2O7,Ba3Sn2O7_Va_O1,1.8136,-2.668890004166667,2.0470090583045017,2.0293343475276915,0.9183590303185518,2,395,-1.538575818365933,11.562571471384079
981,Ba3Sn2O7,Ba3Sn2O7_Va_O2,1.8136,-2.668890004166667,1.5845935952348356,1.2995311952614723,1.8672103080387077,2,323,-1.538575818365933,10.871613812641748
982,Ba3Sn2O7,Ba3Sn2O7_Va_O3,1.8136,-2.668890004166667,2.126196563023328,1.854566969926319,0.8958231037631008,2,431,-1.538575818365933,4.775467368784469
983,BaCeO3,BaCeO3_Va_O1,2.8160000000000003,-3.5906097180000005,1.8350108684217412,1.4264059625723655,1.3419628257598664,2,215,-1.974911567461291,8.598851937366181
984,BaCeO3,BaCeO3_Va_O2,2.8160000000000003,-3.5906097180000005,1.810524567323138,1.4759702902994876,1.307034937595119,2,359,-1.974911567461291,10.295627963016083
985,BaGa4O7,BaGa4O7_Va_O1,2.4256,-2.486273411249999,2.184562762634154,3.418343293318623,-0.0165159549024598,2,287,-1.8812876656363955,7.412317798145512
986,BaGa4O7,BaGa4O7_Va_O2,2.4256,-2.486273411249999,2.031120713759927,2.3815695472863627,1.6168960199234532,2,263,-1.8812876656363955,8.33509725006348
987,BaGa4O7,BaGa4O7_Va_O3,2.4256,-2.486273411249999,2.2079276758982274,2.430248638420524,1.7129957041069055,2,251,-1.8812876656363955,6.638321224413577
988,BaGeO3,BaGeO3_Va_O1,3.4095,-2.6960020335,2.0186865948217916,1.490996637447907,1.093834882849702,2,71,-1.502819088333178,8.855647165282885
989,BaGeO3,BaGeO3_Va_O2,3.4095,-2.6960020335,2.0131570978094837,1.4936078308699072,2.0705808488734525,2,95,-1.502819088333178,8.855647165282885
990,BaGeO3,BaGeO3_Va_O3,3.4095,-2.6960020335,2.316511368749405,2.730229943585275,-0.3786628025515486,2,119,-1.502819088333178,7.530638176666356
992,BaSnO3,BaSnO3_Va_O1,0.7016,-2.5874686660000004,2.0966666666666667,2.0251399631200595,0.9738611304427298,2,134,-1.538575818365933,4.775467368784469
993,BeAl2O4,BeAl2O4_Va_O1,6.2674,-3.3529182539285713,2.0969475100120025,2.331450092422872,1.8391626278048343,2,79,-2.8945619964631555,11.045848101293355
994,BeAl2O4,BeAl2O4_Va_O2,6.2674,-3.3529182539285713,2.0443506054519656,2.945332819624798,2.4584492320133315,2,95,-2.8945619964631555,11.045848101293355
995,BeAl2O4,BeAl2O4_Va_O3,6.2674,-3.3529182539285713,2.051983358903639,2.6570320590633525,1.8279539988484736,2,111,-2.8945619964631555,11.045848101293355
996,BeO,BeO_Va_O1,7.4735,-3.1028558024999997,1.7045243414171556,2.56383046489316,2.148476243436656,2,299,-3.156179192239042,12.235985878829233
997,Bi2O3,Bi2O3_Va_O1,2.1518000000000006,-1.6417272149999995,2.5534711302971105,2.572681787528063,-1.071147094963401,2,143,-0.9858147743813158,6.5726867804683256
998,Bi2O3,Bi2O3_Va_O2,2.1518000000000006,-1.6417272149999995,2.5818292627200585,2.4718292317832677,-1.038908422779985,2,191,-0.9858147743813158,4.929515085351245
999,Bi2O3,Bi2O3_Va_O3,2.1518000000000006,-1.6417272149999995,2.523204218589346,2.561136419992206,-1.3372063484430965,2,239,-0.9858147743813158,6.5726867804683256
1000,BiAsO4,BiAsO4_Va_O1,3.2501,-1.766119035,2.7975842130139705,2.621805659606698,-1.833638296065276,2,95,-0.6589084382122885,6.131959833803375
1001,BiAsO4,BiAsO4_Va_O2,3.2501,-1.766119035,2.758464278013782,2.928444901237197,-2.334013098036246,2,127,-0.6589084382122885,6.131959833803375
1002,BiAsO4,BiAsO4_Va_O3,3.2501,-1.766119035,2.758574603219192,2.592039016935125,-0.4600513502746,2,159,-0.6589084382122885,2.8456164435692117
1003,BiAsO4,BiAsO4_Va_O4,3.2501,-1.766119035,2.7653769057530555,2.781303980765942,-1.8870026133493496,2,191,-0.6589084382122885,2.8456164435692117
1004,BiBO3,BiBO3_Va_O1,2.9598,-2.2904667498333326,2.454892262595023,3.678526623688129,-1.711880954804211,2,287,-0.9858147743813158,8.72282627413336
1005,BiBO3,BiBO3_Va_O2,2.9598,-2.2904667498333326,2.5504895340269664,3.646173626502017,-0.3661063692983313,2,383,-0.9858147743813158,5.436482883899198
1006,BiBO3,BiBO3_Va_O3,2.9598,-2.2904667498333326,2.5259785030950317,3.6372535860496025,-0.4171236329752266,2,479,-0.9858147743813158,5.436482883899198
1009,BiSbO4,BiSbO4_Va_O1,2.7211999999999996,-1.8414490133333337,2.7621815566760333,2.536388998142183,-1.004647163372259,2,63,-0.5208045461292565,5.6981768566109885
1010,BiSbO4,BiSbO4_Va_O2,2.7211999999999996,-1.8414490133333337,2.730940198763093,2.404865647399249,-0.5709323633857815,2,95,-0.5208045461292565,4.823666932753651
1011,Ca(AsO3)2,Ca(AsO3)2_Va_O1,3.5512,-2.229921160000001,2.6133333333333333,2.5382287646651127,-0.7422423101759835,2,242,-0.6589084382122885,7.527945345969153
1012,Ca(SbO3)2,Ca(SbO3)2_Va_O1,2.819,-2.3709468211111124,2.5700000000000003,2.179507565466953,0.6167091292496201,2,242,-0.5208045461292565,6.660379391584381
1013,Ca2GeO4,Ca2GeO4_Va_O1,3.5397999999999996,-2.9902279757142853,1.8187175870527823,1.6975885421144523,2.374657580528925,2,103,-1.502819088333178,9.275456464825368
1014,Ca2GeO4,Ca2GeO4_Va_O2,3.5397999999999996,-2.9902279757142853,1.9067559486019268,1.524341258968782,1.382521099187258,2,107,-1.502819088333178,9.275456464825368
1015,Ca2GeO4,Ca2GeO4_Va_O3,3.5397999999999996,-2.9902279757142853,1.8443538481348536,2.0001051572391737,2.7353940370236365,2,111,-1.502819088333178,9.275456464825368
1016,Ca2PbO4,Ca2PbO4_Va_O1,1.5421000000000005,-2.551106224285714,1.8408434446115292,1.4609270112128203,1.5236901587510694,2,299,-0.2712847561180753,9.026015168365973
1017,Ca2PbO4,Ca2PbO4_Va_O2,1.5421000000000005,-2.551106224285714,2.154032626403501,1.5856301589729718,0.6542652981446491,2,419,-0.2712847561180753,8.868468042578298
1018,Ca2Sb2O7,Ca2Sb2O7_Va_O1,1.9044000000000008,-2.5944479686363637,2.456497016766801,2.7728875055574296,-0.3275111320842749,2,255,-0.5208045461292565,8.49709185041511
1019,Ca2Sb2O7,Ca2Sb2O7_Va_O2,1.9044000000000008,-2.5944479686363637,2.4988791358902342,2.9941408148235684,-0.0681265985424768,2,287,-0.5208045461292565,4.823666932753651
1020,Ca2Sb2O7,Ca2Sb2O7_Va_O3,1.9044000000000008,-2.5944479686363637,2.0475663985212806,1.6521068381754258,1.336920340558009,2,351,-0.5208045461292565,7.9219708428690145
1021,Ca2SiO4,Ca2SiO4_Va_O1,4.253,-3.4766319846428573,1.8885247453887923,1.8762993523597489,2.202152770587737,2,119,-2.356834901289411,10.327840665393381
1022,Ca2SiO4,Ca2SiO4_Va_O2,4.253,-3.4766319846428573,1.794554724261243,2.1087456067238777,3.1228383545018805,2,143,-2.356834901289411,10.327840665393381
1023,Ca2SiO4,Ca2SiO4_Va_O3,4.253,-3.4766319846428573,1.8128060079352744,2.2717234534008717,3.571850884814204,2,167,-2.356834901289411,10.327840665393381
1024,Ca2Sn3O8,Ca2Sn3O8_Va_O3,2.5858,-2.5545313888461525,2.1800859998807605,1.8137598305077427,1.3771977718308386,2,103,-1.538575818365933,8.448892286445927
1025,Ca2SnO4,Ca2SnO4_Va_O1,2.841899999999999,-2.886048206428571,1.7850900552447395,1.4545719027830912,2.3386822088842143,2,299,-1.538575818365933,9.734583519715152
1026,Ca2SnO4,Ca2SnO4_Va_O2,2.841899999999999,-2.886048206428571,2.048321038806505,1.641962653738677,1.3306304272926432,2,419,-1.538575818365933,10.285604745276657
1027,CaAl4O7,CaAl4O7_Va_O1,4.1142,-3.4639722058333335,2.088177094032116,3.144216966527723,0.973748094420283,2,167,-2.8945619964631555,7.986851631586046
1028,CaAl4O7,CaAl4O7_Va_O2,4.1142,-3.4639722058333335,2.1039549337889567,2.138266166770475,3.1098572757796186,2,215,-2.8945619964631555,7.161280213221427
1029,CaAl4O7,CaAl4O7_Va_O3,4.1142,-3.4639722058333335,1.963616567386678,2.110231573195404,2.065083538233176,2,287,-2.8945619964631555,7.161280213221427
1030,CaGa4O7,CaGa4O7_Va_O2,2.6787,-2.506107837916666,2.192568473700708,2.287998240434402,1.6261113110675054,2,63,-1.8812876656363955,6.778257657594404
1031,CaGa4O7,CaGa4O7_Va_O3,2.6787,-2.506107837916666,2.099390967427051,2.15246393080537,1.0718221455549772,2,79,-1.8812876656363955,6.778257657594404
1032,CaGa4O7,CaGa4O7_Va_O4,2.6787,-2.506107837916666,2.222047636805791,3.094619766232644,-0.1816966149207199,2,95,-1.8812876656363955,7.412317798145512
1033,CaIn2O4,CaIn2O4_Va_O1,2.0752,-2.394796169285714,2.0342771754084517,1.5120940085150172,1.4254280145193088,2,447,-1.5993795332042406,7.44578175863709
1035,CaSnO3,CaSnO3_Va_O1,3.068,-2.6796842760000006,2.1469451706387996,1.633967709954644,1.37999702968719,2,269,-1.538575818365933,8.448892286445927
1036,Cs2BeO2,Cs2BeO2_Va_O1,2.8190999999999997,-2.0228830126724127,1.184602843015307,2.0400287921043465,3.0195283588234,2,479,-1.793018636425102,6.117992939414616
1037,Cs2BeO2,Cs2BeO2_Va_O2,2.8190999999999997,-2.0228830126724127,1.0609972061391637,1.14828054545211,4.8084594945218,2,455,-1.793018636425102,3.058996469707308
1038,Cs2CeO3,Cs2CeO3_Va_O1,2.5233,-2.6745016659770116,1.3420881524295536,1.3705822028184516,1.7718195463981423,2,431,-1.793018636425102,10.401324734633178
1039,Cs2CeO3,Cs2CeO3_Va_O2,2.5233,-2.6745016659770116,1.2425705671637837,0.9863841571496758,2.018650460862878,2,359,-1.793018636425102,7.798674791599991
1040,Cs2PbO2,Cs2PbO2_Va_O1,1.8019,-1.4864209311724128,1.5820424991693416,1.9661133941325843,1.319489954298322,2,287,-1.1369603723458594,8.647985220912663
1041,Cs2PbO2,Cs2PbO2_Va_O2,1.8019,-1.4864209311724128,1.2496640479790222,1.2824712414129944,2.390027700681259,2,323,-1.1369603723458594,8.221011246881433
1042,Cs2PbO2,Cs2PbO2_Va_O3,1.8019,-1.4864209311724128,1.2862496947130024,1.261164042280456,2.3275770959685738,2,305,-1.1369603723458594,8.221011246881433
1043,Cs2PbO2,Cs2PbO2_Va_O4,1.8019,-1.4864209311724128,1.6736420949363475,1.9000637602392312,1.579954318093732,2,359,-1.1369603723458594,7.348979008770962
1044,Cs2PbO3,Cs2PbO3_Va_O1,1.4961,-1.5408556518103451,1.485559247551684,0.8198797051437268,1.5944419662124112,2,287,-0.2712847561180753,6.875190181609858
1045,Cs2PbO3,Cs2PbO3_Va_O2,1.4961,-1.5408556518103451,1.7935254477273914,1.5928734516564451,0.1886966471428559,2,431,-0.2712847561180753,8.554355514652912
1046,Cs2SnO3,Cs2SnO3_Va_O1,2.5588999999999995,-1.9013199843103443,1.7187298013467722,1.8796787826834027,0.6592790265490731,2,431,-1.538575818365933,9.971492217351273
1047,Cs2SnO3,Cs2SnO3_Va_O2,2.5588999999999995,-1.9013199843103443,1.3977195288843,0.925032086120494,2.698343604647466,2,359,-1.538575818365933,2.3877336843922343
1048,Cs3AlO3,Cs3AlO3_Va_O1,2.5495,-2.1623344291133013,1.0787764553572217,1.0024672997306396,3.879985955266264,2,91,-1.793018636425102,2.6622838771953488
1049,Cs3AlO3,Cs3AlO3_Va_O2,2.5495,-2.1623344291133013,1.301673256948105,2.018271449934742,3.118818702218517,2,107,-1.793018636425102,5.3245677543906975
1050,Cs3AlO3,Cs3AlO3_Va_O3,2.5495,-2.1623344291133013,1.1636077212086804,1.0139666307100113,3.979260875114659,2,111,-1.793018636425102,2.6622838771953488
1051,Cs3As5O9,Cs3As5O9_Va_O2,3.0533,-1.813479687870183,1.784772160448136,2.190229088224017,1.5530902640851243,2,203,-1.150088447140494,7.333773750232263
1052,Cs3BiO3,Cs3BiO3_Va_O1,3.1239,-1.6135073416133006,1.2583858705521815,1.2319948434174932,2.2151650783418657,2,223,-0.9858147743813158,8.138202755825585
1053,Cs3GaO3,Cs3GaO3_Va_O1,2.7652,-1.7918229108990151,1.152682345968999,1.1952467384897871,2.6585870210035263,2,111,-1.793018636425102,2.4707725993818372
1054,Cs3GaO3,Cs3GaO3_Va_O2,2.7652,-1.7918229108990151,1.368666003408448,2.0094397544209035,1.5103695039975775,2,107,-1.793018636425102,4.9415451987636745
1055,Cs3GaO3,Cs3GaO3_Va_O3,2.7652,-1.7918229108990151,1.147523410796776,1.209305153216084,2.6391238433890143,2,103,-1.793018636425102,2.4707725993818372
1056,Cs3InO3,Cs3InO3_Va_O1,2.162,-1.6228296433990148,1.0806742389079749,0.8131442807694521,2.6184621975611218,2,95,-1.5993795332042406,7.065714615168924
1057,Cs3InO3,Cs3InO3_Va_O2,2.162,-1.6228296433990148,1.0714780534549535,0.8084876745712968,2.6152465035622003,2,103,-1.5993795332042406,9.663727039452324
1058,Cs3InO3,Cs3InO3_Va_O3,2.162,-1.6228296433990148,1.291208814847411,1.5622893014384072,1.9479313795529152,2,111,-1.5993795332042406,8.935404381771043
1059,Cs3TlO3,Cs3TlO3_Va_O1,1.721,-1.3588165867323485,1.0177236782920165,1.016817471577232,1.3514328854371094,2,111,-0.5778080287901701,9.094554843014153
1060,Cs3TlO3,Cs3TlO3_Va_O2,1.721,-1.3588165867323485,1.2191740627970171,1.5381944522650497,0.6941590089551788,2,107,-0.5778080287901701,7.797059988894702
1061,Cs3TlO3,Cs3TlO3_Va_O3,1.721,-1.3588165867323485,1.0343447315919527,0.9991333689248044,1.3393566846161322,2,103,-0.5778080287901701,6.496542418730753
1062,Cs6Ge2O7,Cs6Ge2O7_Va_O1,3.0572999999999997,-1.955927745505748,1.8372139095871296,2.6132137682028223,0.9727602042355604,2,287,-1.502819088333178,7.530638176666356
1063,Cs6Ge2O7,Cs6Ge2O7_Va_O2,3.0572999999999997,-1.955927745505748,1.308838888828172,1.5181205732351406,2.3549337305776494,2,359,-1.502819088333178,3.765319088333178
1064,Cs6Ge2O7,Cs6Ge2O7_Va_O3,3.0572999999999997,-1.955927745505748,1.2737514387069315,1.557822307412096,2.3127457671821436,2,347,-1.502819088333178,3.765319088333178
1065,Cs6Si2O7,Cs6Si2O7_Va_O1,3.4442,-2.38790383483908,1.307232590920452,1.9356571815195789,3.400453375152022,2,275,-1.793018636425102,4.817703288901193
1066,Cs6Si2O7,Cs6Si2O7_Va_O2,3.4442,-2.38790383483908,1.9097821348071764,3.5076203644962196,1.3418678511074211,2,227,-1.793018636425102,9.635406577802385
1067,Cs6Si2O7,Cs6Si2O7_Va_O3,3.4442,-2.38790383483908,1.3401086576177912,1.8835480322680136,3.46742063153314,2,359,-1.793018636425102,4.817703288901193
1068,Cs6Si2O7,Cs6Si2O7_Va_O4,3.4442,-2.38790383483908,1.3223868432825878,1.8399504589532645,3.494978347532891,2,323,-1.793018636425102,4.817703288901193
1069,CsBO2,CsBO2_Va_O1,3.9296,-2.6054637117744255,1.8364608101788675,4.217811019469719,1.2963684222255822,2,131,-1.793018636425102,10.872965767798396
1070,CsBO2,CsBO2_Va_O2,3.9296,-2.6054637117744255,1.3811742318426656,2.164494106944802,5.047833740978778,2,143,-1.793018636425102,5.436482883899198
1071,CsSbO2,CsSbO2_Va_O1,2.3945000000000003,-1.8573301069827588,1.8755274292078843,2.790023883755725,0.2901362657081989,2,383,-1.2369755737418262,10.804303117242089
1072,CsTlO,CsTlO_Va_O1,1.4732000000000005,-1.1640747204214557,1.3207425225196885,1.9117024702670256,1.0774105680425312,2,95,-0.8674893634033586,7.944507999828461
1073,Ga2O3,Ga2O3_Va_O1,2.2114,-2.268996668999999,2.3894413671718,2.8345721001720285,0.3538878002447934,2,95,-1.8812876656363955,7.412317798145512
1074,Ga2O3,Ga2O3_Va_O2,2.2114,-2.268996668999999,2.3313459685068687,2.8870391212766604,-0.6841803673725178,2,127,-1.8812876656363955,9.883090397527349
1075,Ga2O3,Ga2O3_Va_O3,2.2114,-2.268996668999999,2.4005128617292173,2.4635876701348796,0.2207117570890133,2,159,-1.8812876656363955,7.412317798145512
1076,Ga2PbO4,Ga2PbO4_Va_O1,3.4200000000000004,-2.070018908571428,2.3666933300950235,2.5900641261439423,-0.0096903865058273,2,191,-1.1369603723458594,6.667525384936605
1077,Ga2PbO4,Ga2PbO4_Va_O2,3.4200000000000004,-2.070018908571428,2.350128133368874,2.489193764010925,0.1435790881525649,2,239,-1.1369603723458594,4.9415451987636745
1078,Ga2PbO4,Ga2PbO4_Va_O3,3.4200000000000004,-2.070018908571428,2.3824577020851097,2.701914834825696,0.3714294623306167,2,335,-1.1369603723458594,6.667525384936605
1079,Ga4GeO8,Ga4GeO8_Va_O1,2.2165000000000004,-2.232362397307691,2.3793666061554513,3.090454798134748,0.6069895235660492,2,55,-1.502819088333178,7.412317798145512
1080,Ga4GeO8,Ga4GeO8_Va_O2,2.2165000000000004,-2.232362397307691,2.590542132745094,2.867799700349588,-0.333438295266784,2,71,-1.502819088333178,10.001410776048193
1081,Ga4GeO8,Ga4GeO8_Va_O3,2.2165000000000004,-2.232362397307691,2.328462466875143,2.9082201134507284,-0.8972251661709989,2,103,-1.502819088333178,9.883090397527349
1082,Ga4GeO8,Ga4GeO8_Va_O4,2.2165000000000004,-2.232362397307691,2.5347687117833875,2.5584330016921335,-0.015676545974367,2,95,-1.502819088333178,8.706864287096852
1083,GaSbO4,GaSbO4_Va_O1,0.9857999999999992,-2.0545152529166666,2.715256353492882,3.3752613355007526,-0.3025062322126399,2,127,-0.5208045461292565,7.294439532135488
1084,GaSbO4,GaSbO4_Va_O2,0.9857999999999992,-2.0545152529166666,2.654743646507118,2.841521717099752,-0.0700653378202438,2,191,-0.5208045461292565,7.3533786651405
1085,GePbO3,GePbO3_Va_O2,2.5365,-1.9292281530000004,2.6186738845561237,2.8269104136288705,0.35707660110073,2,161,-1.1369603723458594,8.943259646851967
1086,GePbO3,GePbO3_Va_O3,2.5365,-1.9292281530000004,2.6719584035434787,2.8677407307027503,-0.1522997003440347,2,179,-1.1369603723458594,7.217279460679038
1087,InBO3,InBO3_Va_O1,2.7299,-2.460089823833333,2.4200000000000004,2.938655761671348,0.944989817580405,2,269,-1.5993795332042406,9.175862417103438
1088,InSbO4,InSbO4_Va_O1,1.0142999999999995,-1.9531342274999997,2.6237116361147925,2.051755378146668,0.3656080119095048,2,143,-0.5208045461292565,6.151212999581066
1089,InSbO4,InSbO4_Va_O2,1.0142999999999995,-1.9531342274999997,2.5970296739771013,2.0861727336134797,0.1326721141507252,2,191,-0.5208045461292565,6.151212999581066
1090,InSbO4,InSbO4_Va_O3,1.0142999999999995,-1.9531342274999997,2.726488013665243,2.701140616259175,-0.340822269739665,2,239,-0.5208045461292565,6.693356699355772
1091,InSbO4,InSbO4_Va_O4,1.0142999999999995,-1.9531342274999997,2.7627706762428645,2.590412374144096,-0.3120198267977527,2,287,-0.5208045461292565,6.693356699355772
1092,K2BeO2,K2BeO2_Va_O1,2.9366000000000003,-2.1087224357000003,1.0788354602723205,1.1404806477997904,5.465442887808198,2,455,-1.8820736227458112,3.058996469707308
1093,K2BeO2,K2BeO2_Va_O2,2.9366000000000003,-2.1087224357000003,1.1792865484720894,2.165033297398809,3.3856319953420235,2,479,-1.8820736227458112,6.117992939414616