,formula,full_name,band_gap,formation_energy,nn_ave_eleneg,o2p_center_from_vbm,vacancy_formation_energy,charge,vr_max
152,Ga2O3,Ga2O3_Va_O3,2.2114,-2.268996668999999,2.4005128617292173,2.4635876701348796,5.068348539999997,0,-1.8908305574999993
153,Ga2PbO4,Ga2PbO4_Va_O1,3.4200000000000004,-2.070018908571428,2.3666933300950235,2.5900641261439423,4.543920279999734,0,-5.433799634999999
154,Ga2PbO4,Ga2PbO4_Va_O2,3.4200000000000004,-2.070018908571428,2.350128133368874,2.489193764010925,4.349154319999693,0,-5.433799634999999
155,Ga2PbO4,Ga2PbO4_Va_O3,3.4200000000000004,-2.070018908571428,2.3824577020851097,2.701914834825696,4.535833280000029,0,-5.433799634999999
156,Ga4GeO8,Ga4GeO8_Va_O1,2.2165000000000004,-2.232362397307691,2.3793666061554513,3.090454798134748,4.556462470000051,0,-9.068972239062493
157,Ga4GeO8,Ga4GeO8_Va_O2,2.2165000000000004,-2.232362397307691,2.590542132745094,2.867799700349588,5.017620630000019,0,-9.068972239062493
158,Ga4GeO8,Ga4GeO8_Va_O3,2.2165000000000004,-2.232362397307691,2.328462466875143,2.9082201134507284,5.298090269999998,0,-9.068972239062493
159,Ga4GeO8,Ga4GeO8_Va_O4,2.2165000000000004,-2.232362397307691,2.5347687117833875,2.5584330016921335,5.164637070000035,0,-9.068972239062493
160,GaAsO4,GaAsO4_Va_O1,3.1853,-1.9411355259722216,2.715514224375069,2.473321477298566,3.3072650300000053,0,-2.9117032889583325
161,GaAsO4,GaAsO4_Va_O2,3.1853,-1.9411355259722216,2.719485775624932,2.4577082162698316,3.3188758200000255,0,-2.9117032889583325
162,Ge3Sb2O9,Ge3Sb2O9_Va_O1,2.7623,-1.9797399339285713,2.691501831277756,3.277237424301235,3.5858319699999672,0,-3.849494315972222
163,Ge3Sb2O9,Ge3Sb2O9_Va_O2,2.7623,-1.9797399339285713,2.5817378781486573,3.701705733648085,3.730634949999976,0,-3.849494315972222
164,GeO2,GeO2_Va_O1,3.0522,-2.077037438333334,2.725,2.262441673488334,3.65275514999997,0,-1.5577780787500004
165,GePbO3,GePbO3_Va_O1,2.5365,-1.9292281530000004,2.5859348115368204,3.5288020432128744,4.000361900000039,0,-3.215380255000001
166,GePbO3,GePbO3_Va_O2,2.5365,-1.9292281530000004,2.6186738845561237,2.8269104136288705,3.7600193300001,0,-3.215380255000001
167,GePbO3,GePbO3_Va_O3,2.5365,-1.9292281530000004,2.6719584035434787,2.8677407307027503,3.857529450000024,0,-3.215380255000001
168,InBO3,InBO3_Va_O1,2.7299,-2.460089823833333,2.4200000000000004,2.938655761671348,6.210019870000119,0,-4.100149706388888
169,K2BeO2,K2BeO2_Va_O1,2.9366000000000003,-2.1087224357000003,1.0788354602723205,1.1404806477997904,6.505276430000217,0,-5.271806089250001
170,K2BeO2,K2BeO2_Va_O2,2.9366000000000003,-2.1087224357000003,1.1792865484720894,2.165033297398809,6.824801780000039,0,-5.271806089250001
171,K2MgO2,K2MgO2_Va_O1,2.5940000000000003,-1.9796745647,1.0370545008364616,1.037646905077546,6.131575530000029,0,-4.94918641175
172,K2O,K2O_Va_O1,1.7232,-1.2478575836666663,0.82,0.3385650409912411,4.534054169999999,0,-1.8717863754999995
173,K2Pb2O3,K2Pb2O3_Va_O1,1.5620000000000005,-1.5674005930000003,1.6435533525261856,2.440610641714416,4.097887880000039,0,-5.485902075500001
174,K2PbO2,K2PbO2_Va_O1,1.8729,-1.5445868726999992,1.5280700757987018,1.898156144499617,4.168767949999969,0,-5.792200772624997
175,K2PbO2,K2PbO2_Va_O2,1.8729,-1.5445868726999992,1.22109028649284,1.2729591666383462,4.472171290000128,0,-5.792200772624997
176,K2PbO2,K2PbO2_Va_O4,1.8729,-1.5445868726999992,1.6398893590728936,1.866650441134311,4.092874670000024,0,-5.792200772624997
177,K2Sn2O3,K2Sn2O3_Va_O1,1.1128,-1.7484540158571429,1.55968193550599,3.653780673303535,4.648751720000186,0,-6.1195890555000005
178,K2SnO3,K2SnO3_Va_O1,2.1971,-1.960791325583334,1.6419808485156369,1.9660257004440127,4.479691010000247,0,-5.882373976750002
179,K2SnO3,K2SnO3_Va_O2,2.1971,-1.960791325583334,1.4201159474305936,0.981756732522758,3.5255807400002457,0,-5.882373976750002
180,K3AlO3,K3AlO3_Va_O1,2.9283,-2.2661893055714293,1.0800495065327116,1.0387619461920332,6.267663470000011,0,-10.575550092666669
181,K3AlO3,K3AlO3_Va_O2,2.9283,-2.2661893055714293,1.2786564924728616,2.053009951415153,6.590519959999947,0,-10.575550092666669
182,K3BiO3,K3BiO3_Va_O1,2.9837,-1.6843301366428576,1.1934222549807096,1.288544118901772,4.336039210000203,0,-7.860207304333335
183,K3BiO4,K3BiO4_Va_O1,1.2363,-1.647860952375,1.461120754762638,1.335387766232374,1.7593059299999911,0,-6.5914438095
184,K3BiO4,K3BiO4_Va_O2,1.2363,-1.647860952375,1.2559913325887668,1.4446442863816586,2.2569197899999924,0,-6.5914438095
185,K3BiO4,K3BiO4_Va_O3,1.2363,-1.647860952375,1.3596332206159163,1.1099608188972532,2.2418834800000784,0,-6.5914438095
186,K3BiO4,K3BiO4_Va_O4,1.2363,-1.647860952375,1.7553476780368211,2.1460719008515103,2.2479299400000716,0,-6.5914438095
187,K3GaO3,K3GaO3_Va_O1,2.6601,-1.896276210928572,1.1061070957060146,1.0603584466270697,4.972336149999942,0,-8.849288984333336
188,K3GaO3,K3GaO3_Va_O2,2.6601,-1.896276210928572,1.333852158847869,1.8971655830202352,5.159453799999946,0,-8.849288984333336
189,K3SbO3,K3SbO3_Va_O1,3.2578,-1.824618118785715,1.2538072174838404,1.6317101373212508,4.743258180000007,0,-8.514884554333337
190,K4Be3O5,K4Be3O5_Va_O1,3.2212,-2.308588006000001,1.257701346762865,2.184786527545679,7.1359624299999584,0,-6.925764018000002
191,K4Be3O5,K4Be3O5_Va_O2,3.2212,-2.308588006000001,1.183539486966224,1.3781464907697278,6.753646529999978,0,-6.925764018000002
192,K4Be3O5,K4Be3O5_Va_O3,3.2212,-2.308588006000001,1.184784264141722,1.4398180871089854,6.7667944599999235,0,-6.925764018000002
193,K4PbO4,K4PbO4_Va_O1,1.6806,-1.5853561968888892,1.2224163988574512,0.8796687145391631,2.798769679999973,0,-8.917628607500001
194,K4PbO4,K4PbO4_Va_O2,1.6806,-1.5853561968888892,1.1979646371667434,0.8175647508665369,2.91189354000006,0,-8.917628607500001
195,K4PbO4,K4PbO4_Va_O3,1.6806,-1.5853561968888892,1.2120385651215948,0.8685292194312457,2.6679323500001235,0,-8.917628607500001
196,K4PbO4,K4PbO4_Va_O4,1.6806,-1.5853561968888892,1.3188050139552487,0.9202323024462608,2.449365549999934,0,-8.917628607500001
197,K4SnO4,K4SnO4_Va_O1,2.3496,-1.833078164111112,1.1516050551456698,0.9923581387123116,4.204709850000095,0,-10.311064673125005
198,K4SnO4,K4SnO4_Va_O2,2.3496,-1.833078164111112,1.1681144091918765,1.0352734729656528,3.950233590000048,0,-10.311064673125005
199,K4SnO4,K4SnO4_Va_O3,2.3496,-1.833078164111112,1.182490890443199,1.056643674357346,4.045207150000019,0,-10.311064673125005
200,K4SnO4,K4SnO4_Va_O4,2.3496,-1.833078164111112,1.2507091155316088,1.0674981018668082,3.782446660000128,0,-10.311064673125005
201,K6Si2O7,K6Si2O7_Va_O1,3.5319,-2.4870975168666662,1.790471193679351,3.797042472662029,6.4773957900000685,0,-10.658989357999998
202,K6Si2O7,K6Si2O7_Va_O2,3.5319,-2.4870975168666662,1.294650795359,1.7793668779087084,6.392391709999979,0,-10.658989357999998
203,K6Si2O7,K6Si2O7_Va_O3,3.5319,-2.4870975168666662,1.2739813815063414,1.7761314716497294,6.380189700000196,0,-10.658989357999998
204,K6Si2O7,K6Si2O7_Va_O4,3.5319,-2.4870975168666662,1.2557634113310585,1.8032797918292611,6.447219470000059,0,-10.658989357999998
205,KAsO2,KAsO2_Va_O1,3.7234,-1.893294109499999,2.0428502601032266,3.2521215720271996,4.401670849999968,0,-7.573176437999996
206,KAsO2,KAsO2_Va_O2,3.7234,-1.893294109499999,1.588438492138496,2.063522492275746,3.475804520000006,0,-7.573176437999996
207,KBO2,KBO2_Va_O1,4.124499999999999,-2.6493241330416666,1.808379796125676,4.31807050059917,6.284706359999982,0,-10.597296532166666
208,KBiO2,KBiO2_Va_O1,1.6872000000000005,-1.7274063657499994,1.6909699068975024,2.182037568463405,4.066238960000087,0,-6.909625462999998
209,KInO2,KInO2_Va_O1,2.1456,-1.91814239325,1.635850705304314,1.3579253909924716,4.494489600000074,0,-7.672569573
210,KSbO2,KSbO2_Va_O1,1.8589,-1.8866991319999995,1.802212692901336,2.920970269980452,4.4793254599998225,0,-7.546796527999998
211,KSbO3,KSbO3_Va_O1,2.7925,-2.0533213286,2.2357932253282184,1.8010702005981054,4.3210081300000045,0,-10.266606643
212,KTlO,KTlO_Va_O1,1.0755,-1.2013808837777784,1.3166777995745214,2.1122458826960884,3.7728499699999904,0,-3.6041426513333352
213,Li2GeO3,Li2GeO3_Va_O1,3.4576,-2.322119386944445,1.7564349653506546,2.991069972713284,4.615012139999985,0,-6.966358160833336
214,Li2GeO3,Li2GeO3_Va_O2,3.4576,-2.322119386944445,1.3652047087203154,1.5468594223209264,4.147495839999928,0,-6.966358160833336
215,Li2O,Li2O_Va_O1,4.8772,-2.061597913888889,0.98,1.168204519962669,7.427469659999995,0,-3.0923968708333334
216,Li2Si2O5,Li2Si2O5_Va_O1,5.181900000000001,-3.0159132185185182,1.4450636453115957,1.6605604586914726,6.351993590000243,0,-13.571609483333333
217,Li2Si2O5,Li2Si2O5_Va_O2,5.181900000000001,-3.0159132185185182,2.5468374981907833,3.348491891953108,6.090730000000244,0,-13.571609483333333
218,Li2Si2O5,Li2Si2O5_Va_O3,5.181900000000001,-3.0159132185185182,2.11392758697035,3.5481317001341894,6.377834020000032,0,-13.571609483333333
219,Li2SiO3,Li2SiO3_Va_O1,5.1448,-2.882895587777778,1.7543676249109714,3.765117542940948,6.508511050000047,0,-8.648686763333334
220,Li2SiO3,Li2SiO3_Va_O2,5.1448,-2.882895587777778,1.367848009345796,1.9439154367443665,6.448574930000072,0,-8.648686763333334
221,Li2SnO3,Li2SnO3_Va_O1,3.2893,-2.2246867915277777,1.3884706258381867,1.800804626980335,5.028501769999943,0,-6.674060374583333
222,Li2SnO3,Li2SnO3_Va_O2,3.2893,-2.2246867915277777,1.421818636299479,1.7373979170556284,4.801895669999917,0,-6.674060374583333
223,Li2SnO3,Li2SnO3_Va_O3,3.2893,-2.2246867915277777,1.415499632138764,1.7283811814133587,4.833012629999994,0,-6.674060374583333
224,Li3AsO4,Li3AsO4_Va_O1,4.2397,-2.270408983125,1.5169493855184373,1.9209146331378673,3.925070489999948,0,-9.0816359325
225,Li3AsO4,Li3AsO4_Va_O2,4.2397,-2.270408983125,1.4626668024848646,1.9366917382193185,3.9620100699999146,0,-9.0816359325
226,Li3AsO4,Li3AsO4_Va_O3,4.2397,-2.270408983125,1.471247625471115,1.951400765075329,3.9118312099999546,0,-9.0816359325
227,Li3BO3,Li3BO3_Va_O1,5.2981,-2.5554420863095233,1.309903996244476,2.4966280991303913,7.263640589999918,0,-11.925396402777777
228,Li3BO3,Li3BO3_Va_O2,5.2981,-2.5554420863095233,1.2733264597235097,2.570793878591606,7.302907629999945,0,-11.925396402777777
229,Li3BO3,Li3BO3_Va_O3,5.2981,-2.5554420863095233,1.2988153919415162,2.5575295415649366,7.33130466000001,0,-11.925396402777777
230,Li3BiO4,Li3BiO4_Va_O1,1.5349,-1.884712245,1.2065973707119009,1.428675806726367,2.1706420599999863,0,-7.53884898
231,Li3BiO4,Li3BiO4_Va_O2,1.5349,-1.884712245,1.6260762693038433,2.07351588992375,2.7981860999999615,0,-7.53884898
232,Li3SbO4,Li3SbO4_Va_O1,3.2216999999999993,-2.2137175437499996,1.6490904880882649,2.4738478379801805,4.653637580000018,0,-8.854870174999999
233,Li3SbO4,Li3SbO4_Va_O2,3.2216999999999993,-2.2137175437499996,1.249083567388437,1.5750525954426997,4.140833370000005,0,-8.854870174999999
234,Li4GeO4,Li4GeO4_Va_O1,4.0272,-2.2978871192592587,1.3868120812400504,1.7684252098683788,5.069368779999772,0,-12.925615045833329
235,Li4GeO4,Li4GeO4_Va_O2,4.0272,-2.2978871192592587,1.3543613916205228,1.7241108942456838,5.180380769999724,0,-12.925615045833329
236,Li4PbO4,Li4PbO4_Va_O1,1.3723,-1.919143204259259,1.3569145958822,1.4253715182763198,3.022171759999887,0,-10.795180523958331
237,Li4PbO4,Li4PbO4_Va_O2,1.3723,-1.919143204259259,1.3792494173530598,1.3452002584233933,2.741590790000041,0,-10.795180523958331
238,Li5BiO5,Li5BiO5_Va_O1,1.5062,-1.9488605756060613,1.203554022203606,1.7397699228723302,2.26976098000001,0,-12.862479799000003
239,Li5BiO5,Li5BiO5_Va_O2,1.5062,-1.9488605756060613,1.540209613620437,2.2017752713403484,3.1586834099999894,0,-12.862479799000003
240,Li5BiO5,Li5BiO5_Va_O3,1.5062,-1.9488605756060613,1.225025306062086,1.5569234638985447,2.2991671600000334,0,-12.862479799000003
241,Li5SbO5,Li5SbO5_Va_O1,3.0783000000000005,-2.198206253787879,1.2491845381245323,1.9795843312888224,5.002255129999989,0,-14.508161275
242,Li5SbO5,Li5SbO5_Va_O2,3.0783000000000005,-2.198206253787879,1.6322392020531835,2.5550155181691467,4.8999983500000415,0,-14.508161275
243,Li5SbO5,Li5SbO5_Va_O3,3.0783000000000005,-2.198206253787879,1.2755332551970529,1.7738628893716877,4.800263109999955,0,-14.508161275
244,Li8SnO6,Li8SnO6_Va_O1,4.0517,-2.1430056621111113,1.1728702208159925,1.3628324117250872,5.918599580000214,0,-24.108813698750005
245,LiAlO2,LiAlO2_Va_O1,4.6288,-3.082882981458333,1.4296001480574805,1.921063569350896,7.037490029999967,0,-12.331531925833332
246,LiAsO3,LiAsO3_Va_O1,3.650700000000001,-1.986835451666666,2.233158903361803,2.5089847451795455,4.2880212300000355,0,-9.93417725833333
247,LiBO2,LiBO2_Va_O1,5.501,-2.7379905412500003,2.017867839658265,3.950952674776848,6.6961414100000045,0,-10.951962165000001
248,LiBO2,LiBO2_Va_O2,5.501,-2.7379905412500003,1.380511775489672,2.1398734688602414,7.27266962000011,0,-10.951962165000001
249,LiGaO2,LiGaO2_Va_O1,3.2567000000000004,-2.3788747770833334,1.5743574027522462,2.0062090249688924,5.0219176399999785,0,-9.515499108333334
250,LiGaO2,LiGaO2_Va_O2,3.2567000000000004,-2.3788747770833334,1.5232149763392335,2.0266717357714397,5.0092752899999,0,-9.515499108333334
251,LiInO2,LiInO2_Va_O1,1.9281999999999997,-2.0632245620833327,1.4302139050490523,1.639714659382878,4.779716080000023,0,-8.25289824833333
252,LiSb3O8,LiSb3O8_Va_O1,1.1262,-1.960145810277778,2.5763752285228496,2.7469254629996245,3.548756499999977,0,-23.521749723333336
253,LiSb3O8,LiSb3O8_Va_O2,1.1262,-1.960145810277778,2.7927754650524235,3.559907060411964,4.805076799999947,0,-23.521749723333336
254,LiSb3O8,LiSb3O8_Va_O3,1.1262,-1.960145810277778,2.5571000482100716,2.735852057888418,3.753090139999935,0,-23.521749723333336
255,LiSb3O8,LiSb3O8_Va_O4,1.1262,-1.960145810277778,2.5187492582146556,2.795003904936185,3.961730699999984,0,-23.521749723333336
256,LiSbO3,LiSbO3_Va_O1,2.3049999999999997,-2.118194097166666,2.185232051394197,2.4652643178020996,4.270184690000301,0,-10.590970485833331
257,LiSbO3,LiSbO3_Va_O2,2.3049999999999997,-2.118194097166666,2.239950188964073,2.6229005923662303,4.159277680000182,0,-10.590970485833331
258,Mg(GaO2)2,Mg(GaO2)2_Va_O1,2.6435999999999997,-2.5373796199999994,2.057437557842043,2.164471286507033,5.6557862899999325,0,-8.880828669999998
259,Mg(GaO2)2,Mg(GaO2)2_Va_O2,2.6435999999999997,-2.5373796199999994,2.164791428412206,2.4422308896483296,5.611477139999929,0,-8.880828669999998
260,Mg(SbO2)2,Mg(SbO2)2_Va_O1,2.3566000000000003,-2.1705149424999997,2.247257477502938,2.5266811950259194,4.938437779999967,0,-7.596802298749999
261,Mg(SbO2)2,Mg(SbO2)2_Va_O2,2.3566000000000003,-2.1705149424999997,2.3913436234518324,3.5438403880333182,4.459129279999965,0,-7.596802298749999
262,Mg(SbO3)2,Mg(SbO3)2_Va_O1,1.2204999999999997,-2.227293432222222,2.623422811678609,2.951558788863369,4.452067259999987,0,-10.022820444999999
263,Mg(SbO3)2,Mg(SbO3)2_Va_O2,1.2204999999999997,-2.227293432222222,2.6181543766427833,2.9552288083076332,4.4524430099999766,0,-10.022820444999999
264,Mg2GeO4,Mg2GeO4_Va_O1,3.2892,-2.729311635,2.054104618635752,1.9219571448136403,4.6922941199999375,0,-7.164443041875
265,Mg2GeO4,Mg2GeO4_Va_O2,3.2892,-2.729311635,1.988359071101306,2.036416461331928,5.010346599999943,0,-7.164443041875
266,Mg2GeO4,Mg2GeO4_Va_O3,3.2892,-2.729311635,2.000085437055408,2.560866760737587,4.642545649999997,0,-7.164443041875
267,Mg2SiO4,Mg2SiO4_Va_O1,4.7105,-3.2217519799999996,2.0246774317016203,2.240792191255425,6.759763320000056,0,-8.457098947499999
268,Mg2SiO4,Mg2SiO4_Va_O2,4.7105,-3.2217519799999996,1.9624047356842675,2.4262009460250775,6.886883860000021,0,-8.457098947499999
269,Mg2SiO4,Mg2SiO4_Va_O3,4.7105,-3.2217519799999996,1.978143668023242,2.739128908889802,6.721809379999977,0,-8.457098947499999
270,Mg2SnO4,Mg2SnO4_Va_O1,2.6452,-2.6716233064285717,2.095557891012285,2.2622130596147794,5.525079079999964,0,-7.013011179375001
271,Mg2SnO4,Mg2SnO4_Va_O2,2.6452,-2.6716233064285717,1.967551878218179,1.545521679732672,5.398928250000049,0,-7.013011179375001
272,Mg3(AsO4)2,Mg3(AsO4)2_Va_O1,3.7674,-2.457165634230768,2.338025179654921,2.013496418375219,3.675441429999987,0,-5.323858874166665
273,Mg3(AsO4)2,Mg3(AsO4)2_Va_O2,3.7674,-2.457165634230768,2.2844127882122516,2.3976041183048076,3.897180179999973,0,-5.323858874166665
274,Mg3(AsO4)2,Mg3(AsO4)2_Va_O3,3.7674,-2.457165634230768,2.3589508755567294,2.0266475576627507,3.674535109999974,0,-5.323858874166665
275,Mg3(AsO4)2,Mg3(AsO4)2_Va_O4,3.7674,-2.457165634230768,2.32432191979167,2.3127244859187024,3.5821218200000065,0,-5.323858874166665
276,Mg3(BO3)2,Mg3(BO3)2_Va_O1,5.2993,-3.0366663284848485,1.9707507475268855,2.6416591668978153,7.367082699999978,0,-6.959027002777778
277,Mg3(BO3)2,Mg3(BO3)2_Va_O2,5.2993,-3.0366663284848485,1.9277663201587751,2.850843494361607,7.330453509999993,0,-6.959027002777778
278,MgAl2O4,MgAl2O4_Va_O1,5.2208,-3.374314229285714,2.023271694617387,2.037486965492664,7.489577900000208,0,-11.810099802499998
279,MgGeO3,MgGeO3_Va_O1,2.3566000000000003,-2.560048076,2.4014902769604944,3.5800246206459025,4.4688539800000715,0,-6.400120190000001
280,MgGeO3,MgGeO3_Va_O2,2.3566000000000003,-2.560048076,2.319051462619258,2.264710052985627,4.002119290000005,0,-6.400120190000001
281,MgGeO3,MgGeO3_Va_O3,2.3566000000000003,-2.560048076,2.0764563078768257,2.732291460717855,4.630603889999984,0,-6.400120190000001
282,MgO,MgO_Va_O1,4.6587,-3.0533666124999996,1.31,1.800415362880493,7.610649820000001,0,-3.0533666124999996
283,Na2BiO3,Na2BiO3_Va_O1,1.2405000000000004,-1.7307813988505751,1.465409178794349,2.5745459837687807,2.959808070000017,0,-5.192344196551725
284,Na2BiO3,Na2BiO3_Va_O2,1.2405000000000004,-1.7307813988505751,1.4865120273157064,2.5802516950747725,2.5963391599999657,0,-5.192344196551725
285,Na2BiO3,Na2BiO3_Va_O3,1.2405000000000004,-1.7307813988505751,1.4725749983626697,2.518970473609788,2.790446960000006,0,-5.192344196551725
286,Na2GeO3,Na2GeO3_Va_O1,2.9417999999999997,-2.139358738850575,1.840543768294723,2.927860965346632,4.517056469999952,0,-6.418076216551725
287,Na2GeO3,Na2GeO3_Va_O2,2.9417999999999997,-2.139358738850575,1.365304953105308,1.4611478420306878,4.221938589999931,0,-6.418076216551725
288,Na2PbO3,Na2PbO3_Va_O1,1.3852000000000002,-1.685241230933908,1.5578671564280668,1.287216116113615,3.5118434600000317,0,-5.055723692801724
289,Na2PbO3,Na2PbO3_Va_O2,1.3852000000000002,-1.685241230933908,1.5448264821383595,1.3244149362231266,3.720592640000015,0,-5.055723692801724
290,Na2PbO3,Na2PbO3_Va_O3,1.3852000000000002,-1.685241230933908,1.5622508021994184,1.3005316308390644,3.507689330000014,0,-5.055723692801724
291,Na2Sb4O7,Na2Sb4O7_Va_O1,2.9387999999999996,-1.8557798171618032,2.051127537584742,2.788231272117096,4.5623656500000696,0,-12.06256881155172
292,Na2Sb4O7,Na2Sb4O7_Va_O2,2.9387999999999996,-1.8557798171618032,2.392913981072047,2.92493481971893,4.564208150000136,0,-12.06256881155172
293,Na2Sb4O7,Na2Sb4O7_Va_O3,2.9387999999999996,-1.8557798171618032,2.091654765961163,3.3025776457711866,4.198386270000023,0,-12.06256881155172
294,Na2Sb4O7,Na2Sb4O7_Va_O4,2.9387999999999996,-1.8557798171618032,1.9446082369744648,2.7746603316008605,4.772936640000021,0,-12.06256881155172
295,Na2SiO3,Na2SiO3_Va_O1,3.9955000000000007,-2.6992391030172413,1.855558496948309,3.681385195710336,6.465966139999987,0,-8.097717309051724
296,Na2SiO3,Na2SiO3_Va_O2,3.9955000000000007,-2.6992391030172413,1.388390723489074,1.792391604112825,6.397889370000039,0,-8.097717309051724
297,Na2SnO3,Na2SnO3_Va_O1,2.7495000000000003,-2.072807835933908,1.4911487521056277,1.4582995518409103,5.344908069999983,0,-6.218423507801724
298,Na2SnO3,Na2SnO3_Va_O2,2.7495000000000003,-2.072807835933908,1.5086257672724364,1.4058614474089528,5.161102130000026,0,-6.218423507801724
299,Na2SnO3,Na2SnO3_Va_O3,2.7495000000000003,-2.072807835933908,1.5036822579574365,1.392117409965449,5.1803528900000035,0,-6.218423507801724
300,Na3AsO4,Na3AsO4_Va_O1,3.3761,-2.0528031474568964,1.5169268366869164,1.8565538228334355,3.9640783899999494,0,-8.211212589827586
301,Na3AsO4,Na3AsO4_Va_O2,3.3761,-2.0528031474568964,1.5367031765163404,1.7974362153886294,3.8331289499999546,0,-8.211212589827586
302,Na3AsO4,Na3AsO4_Va_O3,3.3761,-2.0528031474568964,1.506927484517736,1.8441806235112188,3.98508406999998,0,-8.211212589827586