,formula,full_name,band_gap,formation_energy,nn_ave_eleneg,o2p_center_from_vbm,vacancy_formation_energy,charge,vr_max,oxi_state
1311,SnO2,SnO2_Va_O1,0.8614000000000002,-2.107481543333334,2.6999999999999997,2.689198165456612,0.4874946412465335,2,-1.5806111575000004,4.0
1312,Sr(AsO3)2,Sr(AsO3)2_Va_O1,3.4882999999999997,-2.233057519074074,2.605,2.4830881013655195,-0.6603201648136243,2,-2.0097517671666667,5.0
1313,Sr(BO2)2,Sr(BO2)2_Va_O1,4.9695,-3.1235381182142854,2.0343749131611357,2.1615546231003835,2.1268773190224017,2,-3.644127804583333,3.0
1314,Sr(BO2)2,Sr(BO2)2_Va_O2,4.9695,-3.1235381182142854,2.212165616451734,4.007286451289397,0.3575153900089236,2,-3.644127804583333,3.0
1315,Sr(BiO2)2,Sr(BiO2)2_Va_O1,2.4357,-2.1114339966666664,2.324548257724588,2.5410450963922,-1.4623077333785242,2,-2.4633396627777775,3.0
1316,Sr(BiO2)2,Sr(BiO2)2_Va_O2,2.4357,-2.1114339966666664,2.029107554714632,1.6113191240651374,0.3173486918524233,2,-2.4633396627777775,3.0
1317,Sr(BiO2)2,Sr(BiO2)2_Va_O3,2.4357,-2.1114339966666664,1.9921489585095735,1.479765478436082,0.5371041497430014,2,-2.4633396627777775,3.0
1318,Sr(BiO2)2,Sr(BiO2)2_Va_O4,2.4357,-2.1114339966666664,2.4698862172393645,2.4288303816261245,-1.654449219348317,2,-2.4633396627777775,3.0
1319,Sr(SbO3)2,Sr(SbO3)2_Va_O1,2.9061999999999997,-2.3865939085185186,2.561666666666667,2.035490482256219,0.7147319307183222,2,-2.147934517666667,5.0
1320,Sr2CeO4,Sr2CeO4_Va_O1,2.8113,-3.4935232297619043,1.7461864139507632,1.5237580760513547,2.012499447644865,2,-6.113665652083332,4.0
1321,Sr2CeO4,Sr2CeO4_Va_O2,2.8113,-3.4935232297619043,1.6160149065174287,1.3414551932417476,2.3174261414614614,2,-6.113665652083332,4.0
1322,Sr2GeO4,Sr2GeO4_Va_O1,3.5318999999999994,-2.9120691372619047,2.0119919774690533,1.7370118308883735,1.747469324067139,2,-5.096120990208333,4.0
1323,Sr2GeO4,Sr2GeO4_Va_O2,3.5318999999999994,-2.9120691372619047,1.801454504713544,1.8924632325639064,1.7920450674957245,2,-5.096120990208333,4.0
1324,Sr2GeO4,Sr2GeO4_Va_O3,3.5318999999999994,-2.9120691372619047,1.84635061077502,1.8548873432259887,0.53923867848175,2,-5.096120990208333,4.0
1325,Sr2PbO4,Sr2PbO4_Va_O1,1.4673000000000005,-2.466891851190476,1.8333932892028373,1.2909229458646654,1.695851339956143,2,-4.317060739583333,4.0
1326,Sr2PbO4,Sr2PbO4_Va_O2,1.4673000000000005,-2.466891851190476,2.130806746421933,1.2647395656126572,0.871799279393813,2,-4.317060739583333,4.0
1327,Sr2Sb2O7,Sr2Sb2O7_Va_O1,1.5038,-2.5705959062121213,2.459055399322205,2.6840017410813624,0.0712016207670784,2,-2.8276554968333336,5.0
1328,Sr2Sb2O7,Sr2Sb2O7_Va_O2,1.5038,-2.5705959062121213,2.4560691981034015,2.865612737955333,0.1185994727642563,2,-2.8276554968333336,5.0
1329,Sr2Sb2O7,Sr2Sb2O7_Va_O3,1.5038,-2.5705959062121213,2.013854602303889,1.7970500046544078,1.6168808596254638,2,-2.8276554968333336,5.0
1330,Sr2SiO4,Sr2SiO4_Va_O2,4.5842,-3.422863758690476,1.8141372600035992,2.1815756368674126,1.1856895671429464,2,-5.990011577708334,4.0
1331,Sr2SiO4,Sr2SiO4_Va_O3,4.5842,-3.422863758690476,1.7630523901393695,2.2575793232741708,2.480822486712031,2,-5.990011577708334,4.0
1332,Sr2SiO4,Sr2SiO4_Va_O4,4.5842,-3.422863758690476,1.9822723634755313,2.003378364216619,2.6917022461087443,2,-5.990011577708334,4.0
1333,Sr2SnO4,Sr2SnO4_Va_O1,2.8567,-2.7861135097619045,1.6933973178721695,1.243837549095172,1.9157561705151176,2,-4.875698642083333,4.0
1334,Sr2SnO4,Sr2SnO4_Va_O2,2.8567,-2.7861135097619045,1.9692086761336776,2.139614610681748,0.8889401203754499,2,-4.875698642083333,4.0
1335,Sr2SnO4,Sr2SnO4_Va_O3,2.8567,-2.7861135097619045,1.983597351297278,1.9553647811038304,1.1602900201373585,2,-4.875698642083333,4.0
1336,SrAl4O7,SrAl4O7_Va_O1,3.8043,-3.464532970555555,2.0686637973355024,3.3886414129236364,1.7682999760985685,2,-3.4645329705555548,3.0
1337,SrAl4O7,SrAl4O7_Va_O2,3.8043,-3.464532970555555,2.1085699467055883,2.2704895205259694,3.837158784627816,2,-3.4645329705555548,3.0
1338,SrAl4O7,SrAl4O7_Va_O3,3.8043,-3.464532970555555,1.937806108722431,2.331783423377374,3.1054495015053365,2,-3.4645329705555548,3.0
1339,SrBe3O4,SrBe3O4_Va_O1,4.028600000000001,-3.1129027464583334,1.6533110910502504,2.5581943510658087,3.044927438335551,2,-4.150536995277778,2.0
1340,SrBe3O4,SrBe3O4_Va_O2,4.028600000000001,-3.1129027464583334,1.5282350663416238,1.7171848755800505,2.885134493218991,2,-4.150536995277778,2.0
1341,SrGa4O7,SrGa4O7_Va_O2,2.5694999999999997,-2.5024807226388877,2.2095961790805183,2.3143721592175077,1.652459204377871,2,-2.5024807226388877,3.0
1342,SrGa4O7,SrGa4O7_Va_O3,2.5694999999999997,-2.5024807226388877,2.044322650399085,2.234831930429887,1.481515225706411,2,-2.5024807226388877,3.0
1343,SrGa4O7,SrGa4O7_Va_O4,2.5694999999999997,-2.5024807226388877,2.1994684574528893,3.2233249975748306,-0.1260982117340052,2,-2.5024807226388877,3.0
1344,SrIn2O4,SrIn2O4_Va_O1,1.8881000000000008,-2.357273833095238,1.975956619531696,1.8071453573751548,1.3402534332253642,2,-2.7501528052777773,3.0
1345,SrIn2O4,SrIn2O4_Va_O2,1.8881000000000008,-2.357273833095238,1.9731408891390827,1.5315136840051684,1.2584773653376833,2,-2.7501528052777773,3.0
1346,SrIn2O4,SrIn2O4_Va_O3,1.8881000000000008,-2.357273833095238,2.1229562814465397,1.4984038828330914,1.2255904040940293,2,-2.7501528052777773,3.0
1347,SrIn2O4,SrIn2O4_Va_O4,1.8881000000000008,-2.357273833095238,2.0210026484402803,1.630761717052397,1.1661962108236763,2,-2.7501528052777773,3.0
1348,SrO,SrO_Va_O1,3.1607000000000003,-3.077090665833333,0.9500000000000002,0.908791266440336,3.82069807799404,2,-3.077090665833333,2.0
1349,SrPbO3,SrPbO3_Va_O1,0.8837999999999999,-2.1561375228333324,2.2539923811744185,1.532005192005701,0.0745024407813379,2,-2.6951719035416657,4.0
1350,SrPbO3,SrPbO3_Va_O2,0.8837999999999999,-2.1561375228333324,2.2388598914155593,1.4658836270450994,0.1555864603969214,2,-2.6951719035416657,4.0
1351,SrSnO3,SrSnO3_Va_O1,1.9664,-2.637945564833333,2.116172940657988,1.882989803022736,1.063512574112727,2,-3.2974319560416667,4.0
1352,SrSnO3,SrSnO3_Va_O2,1.9664,-2.637945564833333,2.1240512179988422,1.9014707125479116,1.0387557685588198,2,-3.2974319560416667,4.0
1353,Tl2O,Tl2O_Va_O1,0.3592000000000004,-0.8199783955555553,1.6847532472986757,2.450006096135706,-1.3306771732245497,2,-1.229967593333333,1.0
1354,Tl2SnO3,Tl2SnO3_Va_O1,1.0258000000000005,-1.5003471177777783,2.3086155511875828,3.3593190693101445,-0.6252152741448502,2,-2.2505206766666674,4.0
1355,Tl2SnO3,Tl2SnO3_Va_O2,1.0258000000000005,-1.5003471177777783,2.269492997378121,3.0497117872618964,0.0502668934221541,2,-2.2505206766666674,4.0
1356,Tl2SnO3,Tl2SnO3_Va_O3,1.0258000000000005,-1.5003471177777783,2.1350711302464656,2.7594583476664427,-0.2565093743339308,2,-2.2505206766666674,4.0
1357,Tl3BO3,Tl3BO3_Va_O1,1.2292999999999998,-1.6481950663095244,2.065470055230187,3.884383397262264,-0.224703075545317,2,-3.845788488055557,3.0
1358,Tl6Si2O7,Tl6Si2O7_Va_O1,1.2203999999999997,-1.905314270666666,2.1098998001661045,3.5557461656266147,0.9944575321542852,2,-3.5724642574999987,4.0
1359,Tl6Si2O7,Tl6Si2O7_Va_O2,1.2203999999999997,-1.905314270666666,2.2174035543785906,4.885201324285101,0.2394090991427995,2,-3.5724642574999987,4.0
1360,TlSbO3,TlSbO3_Va_O1,2.3711,-1.7144332416666668,2.5046166686920737,3.2383319675300344,-0.2947829538391144,2,-1.7144332416666668,5.0