,formula,full_name,band_gap,formation_energy,nn_ave_eleneg,o2p_center_from_vbm,vacancy_formation_energy,charge,vacancy_index,vr_max,Eb_sum
0,Al2Ge2O7,Al2Ge2O7_Va_O1,3.2978,-2.702367327272727,2.406341895839076,3.103427181710611,5.416601799999976,0,191,-1.502819088333178,9.089886842723875
1,Al2Ge2O7,Al2Ge2O7_Va_O2,3.2978,-2.702367327272727,2.3974576458626684,3.101687405729366,5.411478320000137,0,255,-1.502819088333178,9.089886842723875
3,Al2Ge2O7,Al2Ge2O7_Va_O4,3.2978,-2.702367327272727,2.6131783167219456,2.043769290199058,4.388867460000151,0,351,-1.502819088333178,6.427602965528527
4,Al2O3,Al2O3_Va_O1,6.039299999999999,-3.426551008000001,2.224895215865955,2.497321494687122,7.69421869999986,0,269,-2.8945619964631555,10.649135508781395
5,Al2PbO4,Al2PbO4_Va_O1,3.8921,-2.89378359,2.273300437305284,2.391473835296565,6.395135430000105,0,191,-1.1369603723458594,7.050547940563627
6,Al2PbO4,Al2PbO4_Va_O2,3.8921,-2.89378359,2.2577006846753074,2.127479261236284,6.474721879999729,0,239,-1.1369603723458594,5.3245677543906975
7,Al2PbO4,Al2PbO4_Va_O3,3.8921,-2.89378359,2.271189956610316,2.3477590408505455,6.6248099899997985,0,335,-1.1369603723458594,7.050547940563627
8,Al4Bi2O9,Al4Bi2O9_Va_O1,2.6141999999999994,-2.857885394000002,2.3848563900027937,2.7629914986258335,5.484838260000183,0,191,-0.9858147743813158,8.610911144624861
9,Al4Bi2O9,Al4Bi2O9_Va_O2,2.6141999999999994,-2.857885394000002,2.2923045988216,2.525664865147771,7.171021660000301,0,239,-0.9858147743813158,7.986851631586046
10,Al4Bi2O9,Al4Bi2O9_Va_O3,2.6141999999999994,-2.857885394000002,2.3575196255115665,2.820929043431028,5.552068420000419,0,359,-0.9858147743813158,6.9677394495077785
11,Al4Bi2O9,Al4Bi2O9_Va_O4,2.6141999999999994,-2.857885394000002,2.177139080811319,2.1832794803488595,6.636335620000304,0,311,-0.9858147743813158,5.3245677543906975
12,AlAsO4,AlAsO4_Va_O1,4.3858,-2.444837554166667,2.6675,2.1081297060123902,3.7700192500000274,0,215,-0.6589084382122885,5.507900320764561
13,AlSbO4,AlSbO4_Va_O1,1.722599999999999,-2.5433669000000005,2.597103509660969,2.911445950223812,4.638389600000105,0,191,-0.5208045461292565,7.736401220767523
14,AlSbO4,AlSbO4_Va_O2,1.722599999999999,-2.5433669000000005,2.672896490339031,3.6551000107041887,4.367477630000062,0,159,-0.5208045461292565,7.485950809949
15,As2O3,As2O3_Va_O1,3.3312,-1.6290845505,2.745736482564582,3.6517666474416854,3.803732819999718,0,287,-1.150088447140494,6.873510227614322
16,As2O3,As2O3_Va_O2,3.3312,-1.6290845505,2.6515650881606163,3.61912449772006,3.756670709999875,0,383,-1.150088447140494,6.873510227614322
17,As2O3,As2O3_Va_O3,3.3312,-1.6290845505,2.6571443525075127,3.7018856453418607,3.7697533399999745,0,479,-1.150088447140494,6.873510227614322
18,As2Pb3O8,As2Pb3O8_Va_O1,3.2885999999999997,-1.7352351134615382,2.6860742046445267,2.7630077039862124,2.7753270799997924,0,251,-0.6589084382122885,2.8456164435692117
19,As2Pb3O8,As2Pb3O8_Va_O2,3.2885999999999997,-1.7352351134615382,2.7042365259736325,2.9586236071888488,3.1714331199999695,0,323,-0.6589084382122885,2.8456164435692117
20,As2Pb3O8,As2Pb3O8_Va_O3,3.2885999999999997,-1.7352351134615382,2.7163595941283405,2.9774057862274157,3.1593086699998683,0,395,-0.6589084382122885,2.8456164435692117
21,As2Pb3O8,As2Pb3O8_Va_O4,3.2885999999999997,-1.7352351134615382,2.768647000263188,2.651400752553627,2.759128609999957,0,467,-0.6589084382122885,2.8456164435692117
22,As2PbO4,As2PbO4_Va_O1,2.6284999999999994,-1.6492657325,2.5488496637752465,3.6606861531341286,3.8530357699999143,0,63,-1.1369603723458594,6.873510227614322
23,As2PbO4,As2PbO4_Va_O2,2.6284999999999994,-1.6492657325,2.6503630288382656,3.697726588387933,4.001207819999999,0,79,-1.1369603723458594,6.873510227614322
24,As2PbO4,As2PbO4_Va_O3,2.6284999999999994,-1.6492657325,2.5806582237199267,3.148174099169339,4.1914656999999895,0,95,-1.1369603723458594,6.88871548615302
25,As2PbO4,As2PbO4_Va_O4,2.6284999999999994,-1.6492657325,2.695552037046685,3.189222957911923,4.114966009999998,0,111,-1.1369603723458594,6.88871548615302
26,As2PbO6,As2PbO6_Va_O1,2.1464,-1.7356450333333333,2.8350000000000004,3.7085103290461223,4.38521920000006,0,242,-0.6589084382122885,7.417213073311354
27,B2O3,B2O3_Va_O1,6.3479,-2.79805631,2.522642750980837,3.1894952912738876,6.752125390000012,0,59,-2.1905056483979153,10.872965767798396
29,B4PbO7,B4PbO7_Va_O1,4.158,-2.6473397413888877,2.4960870301019216,4.0909509783768545,7.0312588100001765,0,215,-1.1369603723458594,10.872965767798396
30,B4PbO7,B4PbO7_Va_O2,4.158,-2.6473397413888877,2.522918939325306,3.9908693958022026,6.675704760000039,0,206,-1.1369603723458594,10.872965767798396
31,B4PbO7,B4PbO7_Va_O3,4.158,-2.6473397413888877,2.4117625853743987,5.0308915055261805,7.705514119999984,0,161,-1.1369603723458594,16.309448651697593
32,B4PbO7,B4PbO7_Va_O4,4.158,-2.6473397413888877,2.564729948085834,3.77814546703765,7.365726990000107,0,197,-1.1369603723458594,10.872965767798396
34,BAsO4,BAsO4_Va_O1,4.380000000000001,-2.132276382361111,2.7750470596344017,2.9118904601513993,3.3136634799999545,0,215,-0.6589084382122885,8.28209932746841
35,Ba(AsO3)2,Ba(AsO3)2_Va_O1,2.8693999999999997,-2.1914320077777782,2.663833653764642,2.9647492210345696,3.8743983700000033,0,239,-0.6589084382122885,7.388008912788326
36,Ba(AsO3)2,Ba(AsO3)2_Va_O2,2.8693999999999997,-2.1914320077777782,2.5819066683094225,3.220476701785266,3.3655109400000445,0,335,-0.6589084382122885,7.388008912788326
37,Ba(AsO3)2,Ba(AsO3)2_Va_O3,2.8693999999999997,-2.1914320077777782,2.5392596779259375,2.3326627298253007,2.3429738500002575,0,431,-0.6589084382122885,2.8456164435692117
38,Ba(SbO3)2,Ba(SbO3)2_Va_O1,2.9955999999999996,-2.376871872222223,2.5516666666666667,1.939533526774728,4.173887470000077,0,242,-0.5208045461292565,6.520442958403554
39,Ba2Bi2O5,Ba2Bi2O5_Va_O1,1.8273,-2.288426511111112,2.062504975269688,2.40781201144093,3.968344230000079,0,95,-0.9858147743813158,10.073447492833772
40,Ba2Bi2O5,Ba2Bi2O5_Va_O2,1.8273,-2.288426511111112,1.8107787739008248,2.100563563987341,4.326563000000087,0,127,-0.9858147743813158,6.733499772066789
41,Ba2Bi2O5,Ba2Bi2O5_Va_O3,1.8273,-2.288426511111112,2.059103547200948,1.833463230597384,4.561079060000006,0,143,-0.9858147743813158,6.679895441533968
42,Ba2In2O5,Ba2In2O5_Va_O1,0.9603000000000002,-2.424057256666667,1.701871605116176,2.3408683614378414,4.0175883200000815,0,179,-1.5993795332042406,7.132931584504046
43,Ba2In2O5,Ba2In2O5_Va_O2,0.9603000000000002,-2.424057256666667,1.815303427119624,1.7951956170136785,3.516567620000055,0,251,-1.5993795332042406,8.829707610153948
44,Ba2SiO4,Ba2SiO4_Va_O1,4.7691,-3.3619786003571424,1.8187115337578652,1.9887997780759203,6.5052005399997,0,239,-2.356834901289411,4.817703288901193
45,Ba2SiO4,Ba2SiO4_Va_O2,4.7691,-3.3619786003571424,1.7501702673414408,2.0510531204351756,6.6043048999998835,0,287,-2.356834901289411,4.817703288901193
46,Ba2SiO4,Ba2SiO4_Va_O3,4.7691,-3.3619786003571424,1.9140223485049568,1.8462819252227711,6.422328049999928,0,335,-2.356834901289411,4.817703288901193
47,Ba2SnO4,Ba2SnO4_Va_O1,2.6748,-2.7252458707142857,1.5846067414973888,1.2392503518767148,5.100413910000052,0,89,-1.538575818365933,10.871613812641748
48,Ba2SnO4,Ba2SnO4_Va_O2,2.6748,-2.7252458707142857,2.0113911022161712,2.0533727474190098,4.832842359999981,0,125,-1.538575818365933,11.562571471384079
49,Ba3(AsO4)2,Ba3(AsO4)2_Va_O1,4.0672999999999995,-2.691978154615385,2.3065525755656915,1.8664497423710813,3.449726650000125,0,188,-0.6589084382122885,4.542392469219115
50,Ba3(AsO4)2,Ba3(AsO4)2_Va_O2,4.0672999999999995,-2.691978154615385,2.1447896290114725,2.1236025483072396,3.5821794299998917,0,350,-0.6589084382122885,2.8456164435692117
51,Ba3Sn2O7,Ba3Sn2O7_Va_O1,1.8136,-2.668890004166667,2.0470090583045017,2.0293343475276915,4.778640149999669,0,395,-1.538575818365933,11.562571471384079
52,Ba3Sn2O7,Ba3Sn2O7_Va_O2,1.8136,-2.668890004166667,1.5845935952348356,1.2995311952614723,4.901047939999794,0,323,-1.538575818365933,10.871613812641748
53,Ba3Sn2O7,Ba3Sn2O7_Va_O3,1.8136,-2.668890004166667,2.126196563023328,1.854566969926319,4.604860199999971,0,431,-1.538575818365933,4.775467368784469
54,BaCeO3,BaCeO3_Va_O1,2.8160000000000003,-3.5906097180000005,1.8350108684217412,1.4264059625723655,5.071578430000395,0,215,-1.974911567461291,8.598851937366181
55,BaCeO3,BaCeO3_Va_O2,2.8160000000000003,-3.5906097180000005,1.810524567323138,1.4759702902994876,5.051462860000251,0,359,-1.974911567461291,10.295627963016083
56,BaGa4O7,BaGa4O7_Va_O1,2.4256,-2.486273411249999,2.184562762634154,3.418343293318623,5.196709840000162,0,287,-1.8812876656363955,7.412317798145512
57,BaGa4O7,BaGa4O7_Va_O2,2.4256,-2.486273411249999,2.031120713759927,2.3815695472863627,4.816019559999981,0,263,-1.8812876656363955,8.33509725006348
58,BaGa4O7,BaGa4O7_Va_O3,2.4256,-2.486273411249999,2.2079276758982274,2.430248638420524,4.4242031200000245,0,251,-1.8812876656363955,6.638321224413577
59,BaGa4O7,BaGa4O7_Va_O4,2.4256,-2.486273411249999,2.207244346453633,2.4264080351591204,4.440331379999984,0,215,-1.8812876656363955,6.638321224413577
60,BaGeO3,BaGeO3_Va_O1,3.4095,-2.6960020335,2.0186865948217916,1.490996637447907,3.923291630000003,0,71,-1.502819088333178,8.855647165282885
61,BaGeO3,BaGeO3_Va_O2,3.4095,-2.6960020335,2.0131570978094837,1.4936078308699072,3.882139670000024,0,95,-1.502819088333178,8.855647165282885
62,BaGeO3,BaGeO3_Va_O3,3.4095,-2.6960020335,2.316511368749405,2.730229943585275,4.183732449999988,0,119,-1.502819088333178,7.530638176666356
63,BeAl2O4,BeAl2O4_Va_O1,6.2674,-3.3529182539285713,2.0969475100120025,2.331450092422872,7.894412639999937,0,79,-2.8945619964631555,11.045848101293355
64,BeAl2O4,BeAl2O4_Va_O2,6.2674,-3.3529182539285713,2.0443506054519656,2.945332819624798,7.755583929999952,0,95,-2.8945619964631555,11.045848101293355
65,BeAl2O4,BeAl2O4_Va_O3,6.2674,-3.3529182539285713,2.051983358903639,2.6570320590633525,7.785844819999975,0,111,-2.8945619964631555,11.045848101293355
66,BeO,BeO_Va_O1,7.4735,-3.1028558024999997,1.7045243414171556,2.56383046489316,8.244733159999564,0,299,-3.156179192239042,12.235985878829233
67,Bi2O3,Bi2O3_Va_O1,2.1518000000000006,-1.6417272149999995,2.5534711302971105,2.572681787528063,3.919661759999949,0,143,-0.9858147743813158,6.5726867804683256
68,Bi2O3,Bi2O3_Va_O2,2.1518000000000006,-1.6417272149999995,2.5818292627200585,2.4718292317832677,4.028562429999861,0,191,-0.9858147743813158,4.929515085351245
69,Bi2O3,Bi2O3_Va_O3,2.1518000000000006,-1.6417272149999995,2.523204218589346,2.561136419992206,4.10182348999991,0,239,-0.9858147743813158,6.5726867804683256
70,BiAsO4,BiAsO4_Va_O1,3.2501,-1.766119035,2.7975842130139705,2.621805659606698,2.5562146399999026,0,95,-0.6589084382122885,6.131959833803375
71,BiAsO4,BiAsO4_Va_O2,3.2501,-1.766119035,2.758464278013782,2.928444901237197,2.9909063799999647,0,127,-0.6589084382122885,6.131959833803375
72,BiAsO4,BiAsO4_Va_O3,3.2501,-1.766119035,2.758574603219192,2.592039016935125,2.5543790999999008,0,159,-0.6589084382122885,2.8456164435692117
73,BiAsO4,BiAsO4_Va_O4,3.2501,-1.766119035,2.7653769057530555,2.781303980765942,2.8915669399999704,0,191,-0.6589084382122885,2.8456164435692117
74,BiBO3,BiBO3_Va_O1,2.9598,-2.2904667498333326,2.454892262595023,3.678526623688129,5.768036939999897,0,287,-0.9858147743813158,8.72282627413336
75,BiBO3,BiBO3_Va_O2,2.9598,-2.2904667498333326,2.5504895340269664,3.646173626502017,5.499073700000176,0,383,-0.9858147743813158,5.436482883899198
76,BiBO3,BiBO3_Va_O3,2.9598,-2.2904667498333326,2.5259785030950317,3.6372535860496025,5.759585010000032,0,479,-0.9858147743813158,5.436482883899198
79,BiSbO4,BiSbO4_Va_O1,2.7211999999999996,-1.8414490133333337,2.7621815566760333,2.536388998142183,3.840255669999928,0,63,-0.5208045461292565,5.6981768566109885
80,BiSbO4,BiSbO4_Va_O2,2.7211999999999996,-1.8414490133333337,2.730940198763093,2.404865647399249,4.4004463100000155,0,95,-0.5208045461292565,4.823666932753651
81,Ca(AsO3)2,Ca(AsO3)2_Va_O1,3.5512,-2.229921160000001,2.6133333333333333,2.5382287646651127,4.587764600000023,0,242,-0.6589084382122885,7.527945345969153
82,Ca(SbO3)2,Ca(SbO3)2_Va_O1,2.819,-2.3709468211111124,2.5700000000000003,2.179507565466953,4.43314650999981,0,242,-0.5208045461292565,6.660379391584381
83,Ca2GeO4,Ca2GeO4_Va_O1,3.5397999999999996,-2.9902279757142853,1.8187175870527823,1.6975885421144523,5.00869222999996,0,103,-1.502819088333178,9.275456464825368
84,Ca2GeO4,Ca2GeO4_Va_O2,3.5397999999999996,-2.9902279757142853,1.9067559486019268,1.524341258968782,4.748400960000035,0,107,-1.502819088333178,9.275456464825368
85,Ca2GeO4,Ca2GeO4_Va_O3,3.5397999999999996,-2.9902279757142853,1.8443538481348536,2.0001051572391737,4.695780980000004,0,111,-1.502819088333178,9.275456464825368
86,Ca2PbO4,Ca2PbO4_Va_O1,1.5421000000000005,-2.551106224285714,1.8408434446115292,1.4609270112128203,3.553008880000002,0,299,-0.2712847561180753,9.026015168365973
87,Ca2Sb2O7,Ca2Sb2O7_Va_O1,1.9044000000000008,-2.5944479686363637,2.456497016766801,2.7728875055574296,4.069781789999874,0,255,-0.5208045461292565,8.49709185041511
88,Ca2Sb2O7,Ca2Sb2O7_Va_O2,1.9044000000000008,-2.5944479686363637,2.4988791358902342,2.9941408148235684,4.13348798000005,0,287,-0.5208045461292565,4.823666932753651
89,Ca2Sb2O7,Ca2Sb2O7_Va_O3,1.9044000000000008,-2.5944479686363637,2.0475663985212806,1.6521068381754258,4.228122869999774,0,351,-0.5208045461292565,7.9219708428690145
90,Ca2SiO4,Ca2SiO4_Va_O1,4.253,-3.4766319846428573,1.8885247453887923,1.8762993523597489,6.737361099999939,0,119,-2.356834901289411,10.327840665393381
91,Ca2SiO4,Ca2SiO4_Va_O2,4.253,-3.4766319846428573,1.794554724261243,2.1087456067238777,6.820182169999848,0,143,-2.356834901289411,10.327840665393381
92,Ca2SiO4,Ca2SiO4_Va_O3,4.253,-3.4766319846428573,1.8128060079352744,2.2717234534008717,6.709661509999828,0,167,-2.356834901289411,10.327840665393381
93,Ca2Sn3O8,Ca2Sn3O8_Va_O1,2.5858,-2.5545313888461525,2.354002292434437,1.5835623089349955,4.6394469599999955,0,55,-1.538575818365933,6.612179827615198
94,Ca2Sn3O8,Ca2Sn3O8_Va_O2,2.5858,-2.5545313888461525,2.385825707804043,2.2732986530131076,5.08523029999993,0,71,-1.538575818365933,8.999913512007433
95,Ca2Sn3O8,Ca2Sn3O8_Va_O3,2.5858,-2.5545313888461525,2.1800859998807605,1.8137598305077427,4.95489638999994,0,103,-1.538575818365933,8.448892286445927
96,Ca2SnO4,Ca2SnO4_Va_O1,2.841899999999999,-2.886048206428571,1.7850900552447395,1.4545719027830912,5.337301699999793,0,299,-1.538575818365933,9.734583519715152
97,Ca2SnO4,Ca2SnO4_Va_O2,2.841899999999999,-2.886048206428571,2.048321038806505,1.641962653738677,5.522538049999989,0,419,-1.538575818365933,10.285604745276657
98,Ca3(BO3)2,Ca3(BO3)2_Va_O1,4.9902,-3.288179811212121,1.82848968227586,2.5767985882804023,7.1639846800000075,0,65,-2.1905056483979153,5.436482883899198
99,Ca4As2O,Ca4As2O_Va_O1,1.0927000000000002,-1.8127497364285716,1.0107909576537852,3.667272518986856,7.170827219999987,0,125,-3.2905001259273035,11.020274752984378
101,CaAl4O7,CaAl4O7_Va_O1,4.1142,-3.4639722058333335,2.088177094032116,3.144216966527723,7.282963649999951,0,167,-2.8945619964631555,7.986851631586046
102,CaAl4O7,CaAl4O7_Va_O2,4.1142,-3.4639722058333335,2.1039549337889567,2.138266166770475,6.773601379999841,0,215,-2.8945619964631555,7.161280213221427
103,CaAl4O7,CaAl4O7_Va_O3,4.1142,-3.4639722058333335,1.963616567386678,2.110231573195404,6.96492865000017,0,287,-2.8945619964631555,7.161280213221427
104,CaAl4O7,CaAl4O7_Va_O4,4.1142,-3.4639722058333335,2.0158749846122253,2.377521384129426,6.850801999999826,0,263,-2.8945619964631555,7.161280213221427
105,CaGa4O7,CaGa4O7_Va_O1,2.6787,-2.506107837916666,2.1316318553997298,2.3698296539918005,4.740904160000023,0,47,-1.8812876656363955,6.778257657594404
106,CaGa4O7,CaGa4O7_Va_O2,2.6787,-2.506107837916666,2.192568473700708,2.287998240434402,4.638148409999994,0,63,-1.8812876656363955,6.778257657594404
107,CaGa4O7,CaGa4O7_Va_O3,2.6787,-2.506107837916666,2.099390967427051,2.15246393080537,4.927625449999946,0,79,-1.8812876656363955,6.778257657594404
108,CaGa4O7,CaGa4O7_Va_O4,2.6787,-2.506107837916666,2.222047636805791,3.094619766232644,5.144887999999932,0,95,-1.8812876656363955,7.412317798145512
109,CaIn2O4,CaIn2O4_Va_O1,2.0752,-2.394796169285714,2.0342771754084517,1.5120940085150172,5.04011231999983,0,447,-1.5993795332042406,7.44578175863709
111,CaSnO3,CaSnO3_Va_O1,3.068,-2.6796842760000006,2.1469451706387996,1.633967709954644,5.165658959999869,0,269,-1.538575818365933,8.448892286445927
112,Cs2BeO2,Cs2BeO2_Va_O1,2.8190999999999997,-2.0228830126724127,1.184602843015307,2.0400287921043465,6.6364066600002705,0,479,-1.793018636425102,6.117992939414616
113,Cs2BeO2,Cs2BeO2_Va_O2,2.8190999999999997,-2.0228830126724127,1.0609972061391637,1.14828054545211,6.480850050000194,0,455,-1.793018636425102,3.058996469707308
114,Cs2CeO3,Cs2CeO3_Va_O1,2.5233,-2.6745016659770116,1.3420881524295536,1.3705822028184516,4.964501289999939,0,431,-1.793018636425102,10.401324734633178
115,Cs2Pb2O3,Cs2Pb2O3_Va_O1,1.5981,-1.5268511915517244,1.7115984963858488,2.1850257895605347,4.016320110000047,0,223,-1.1369603723458594,8.647985220912663
116,Cs2PbO2,Cs2PbO2_Va_O1,1.8019,-1.4864209311724128,1.5820424991693416,1.9661133941325843,4.030662020000031,0,287,-1.1369603723458594,8.647985220912663
117,Cs2PbO2,Cs2PbO2_Va_O4,1.8019,-1.4864209311724128,1.6736420949363475,1.9000637602392312,4.006446770000034,0,359,-1.1369603723458594,7.348979008770962
118,Cs2PbO3,Cs2PbO3_Va_O1,1.4961,-1.5408556518103451,1.485559247551684,0.8198797051437268,1.9968066599998424,0,287,-0.2712847561180753,6.875190181609858
119,Cs2PbO3,Cs2PbO3_Va_O2,1.4961,-1.5408556518103451,1.7935254477273914,1.5928734516564451,2.988609309999797,0,431,-0.2712847561180753,8.554355514652912
120,Cs2SnO3,Cs2SnO3_Va_O1,2.5588999999999995,-1.9013199843103443,1.7187298013467722,1.8796787826834027,4.551719139999827,0,431,-1.538575818365933,9.971492217351273
121,Cs2SnO3,Cs2SnO3_Va_O2,2.5588999999999995,-1.9013199843103443,1.3977195288843,0.925032086120494,3.603359599999644,0,359,-1.538575818365933,2.3877336843922343
122,Cs3AlO3,Cs3AlO3_Va_O1,2.5495,-2.1623344291133013,1.0787764553572217,1.0024672997306396,6.003346330000008,0,91,-1.793018636425102,2.6622838771953488
123,Cs3AlO3,Cs3AlO3_Va_O2,2.5495,-2.1623344291133013,1.301673256948105,2.018271449934742,6.672025369999924,0,107,-1.793018636425102,5.3245677543906975
124,Cs3AlO3,Cs3AlO3_Va_O3,2.5495,-2.1623344291133013,1.1636077212086804,1.0139666307100113,6.088086709999979,0,111,-1.793018636425102,2.6622838771953488
125,Cs3As5O9,Cs3As5O9_Va_O1,3.0533,-1.813479687870183,2.300759668132267,3.5853851350950476,3.858635100000024,0,167,-1.150088447140494,6.873510227614322
126,Cs3As5O9,Cs3As5O9_Va_O2,3.0533,-1.813479687870183,1.784772160448136,2.190229088224017,4.123548859999923,0,203,-1.150088447140494,7.333773750232263
127,Cs3BiO3,Cs3BiO3_Va_O1,3.1239,-1.6135073416133006,1.2583858705521815,1.2319948434174932,3.9902905099999177,0,223,-0.9858147743813158,8.138202755825585
128,Cs3GaO3,Cs3GaO3_Va_O1,2.7652,-1.7918229108990151,1.152682345968999,1.1952467384897871,4.966287370000041,0,111,-1.793018636425102,2.4707725993818372
129,Cs3GaO3,Cs3GaO3_Va_O2,2.7652,-1.7918229108990151,1.368666003408448,2.0094397544209035,5.33823221000001,0,107,-1.793018636425102,4.9415451987636745
130,Cs3GaO3,Cs3GaO3_Va_O3,2.7652,-1.7918229108990151,1.147523410796776,1.209305153216084,4.943783830000038,0,103,-1.793018636425102,2.4707725993818372
131,Cs3InO3,Cs3InO3_Va_O1,2.162,-1.6228296433990148,1.0806742389079749,0.8131442807694521,3.7392211399999926,0,95,-1.5993795332042406,7.065714615168924
132,Cs3InO3,Cs3InO3_Va_O2,2.162,-1.6228296433990148,1.0714780534549535,0.8084876745712968,3.7899708200000166,0,103,-1.5993795332042406,9.663727039452324
133,Cs3InO3,Cs3InO3_Va_O3,2.162,-1.6228296433990148,1.291208814847411,1.5622893014384072,4.195470469999984,0,111,-1.5993795332042406,8.935404381771043
134,Cs3SbO3,Cs3SbO3_Va_O1,3.1413,-1.7730991862561585,1.3014648995320195,1.781327299744202,4.478133699999839,0,223,-1.2369755737418262,9.948673301116997
135,Cs3TlO3,Cs3TlO3_Va_O1,1.721,-1.3588165867323485,1.0177236782920165,1.016817471577232,2.6414307799999595,0,111,-0.5778080287901701,9.094554843014153