,formula,full_name,band_gap,formation_energy,nn_ave_eleneg,o2p_center_from_vbm,vacancy_formation_energy,charge,vacancy_index,vr_max,Eb_sum
1615,Ca2PbO4,Ca2PbO4_Va_O1,1.5421000000000005,-2.551106224285714,1.8408434446115292,1.4609270112128203,1.5236901587510694,2,299,-0.2712847561180753,9.019602615049275
1616,Ca2PbO4,Ca2PbO4_Va_O2,1.5421000000000005,-2.551106224285714,2.154032626403501,1.5856301589729718,0.6542652981446491,2,419,-0.2712847561180753,7.795731607548976
1617,Ca2Sb2O7,Ca2Sb2O7_Va_O1,1.9044000000000008,-2.5944479686363637,2.456497016766801,2.7728875055574296,-0.3275111320842749,2,255,-0.5208045461292565,7.364202309420018
1618,Ca2Sb2O7,Ca2Sb2O7_Va_O2,1.9044000000000008,-2.5944479686363637,2.4988791358902342,2.9941408148235684,-0.0681265985424768,2,287,-0.5208045461292565,6.698917746678508
1619,Ca2Sb2O7,Ca2Sb2O7_Va_O3,1.9044000000000008,-2.5944479686363637,2.0475663985212806,1.6521068381754258,1.336920340558009,2,351,-0.5208045461292565,7.447399000495166
1620,Ca2SiO4,Ca2SiO4_Va_O1,4.253,-3.4766319846428573,1.8885247453887923,1.8762993523597489,2.202152770587737,2,119,-2.356834901289411,8.683275683754719
1621,Ca2SiO4,Ca2SiO4_Va_O2,4.253,-3.4766319846428573,1.794554724261243,2.1087456067238777,3.1228383545018805,2,143,-2.356834901289411,9.013847868393244
1622,Ca2SiO4,Ca2SiO4_Va_O3,4.253,-3.4766319846428573,1.8128060079352744,2.2717234534008717,3.571850884814204,2,167,-2.356834901289411,8.844443502787929
1623,Ca2Sn3O8,Ca2Sn3O8_Va_O3,2.5858,-2.5545313888461525,2.1800859998807605,1.8137598305077427,1.3771977718308386,2,103,-1.538575818365933,8.123770875523004
1624,Ca2SnO4,Ca2SnO4_Va_O1,2.841899999999999,-2.886048206428571,1.7850900552447395,1.4545719027830912,2.3386822088842143,2,299,-1.538575818365933,9.265605158345334
1625,Ca2SnO4,Ca2SnO4_Va_O2,2.841899999999999,-2.886048206428571,2.048321038806505,1.641962653738677,1.3306304272926432,2,419,-1.538575818365933,9.32615717718792
1626,CaAl2(SiO4)2,CaAl2(SiO4)2_Va_O1,4.7445,-3.426421389615385,2.2247122561229453,2.867429592559109,2.0862454040780887,2,197,-2.356834901289411,8.741755690861666
1627,CaAl2(SiO4)2,CaAl2(SiO4)2_Va_O2,4.7445,-3.426421389615385,2.5640616202147006,2.257809906846316,2.9371996960480184,2,233,-2.356834901289411,7.432281630168499
1628,CaAl4O7,CaAl4O7_Va_O1,4.1142,-3.4639722058333335,2.088177094032116,3.144216966527723,0.973748094420283,2,167,-2.8945619964631555,7.913433517721903
1629,CaAl4O7,CaAl4O7_Va_O2,4.1142,-3.4639722058333335,2.1039549337889567,2.138266166770475,3.1098572757796186,2,215,-2.8945619964631555,6.708269720611802
1630,CaAl4O7,CaAl4O7_Va_O3,4.1142,-3.4639722058333335,1.963616567386678,2.110231573195404,2.065083538233176,2,287,-2.8945619964631555,7.285776230820881
1631,CaAlBO4,CaAlBO4_Va_O2,4.8482,-3.322331291309524,2.0478058480266785,1.7863333742503076,3.490940923631578,2,287,-2.1905056483979153,6.731291534808525
1632,CaAlBO4,CaAlBO4_Va_O3,4.8482,-3.322331291309524,2.130939750409299,2.7556880128098364,1.0415576674360407,2,215,-2.1905056483979153,9.218465471580343
1633,CaAlBO4,CaAlBO4_Va_O4,4.8482,-3.322331291309524,1.867220847728845,1.9850240612699055,2.0253659666385335,2,335,-2.1905056483979153,8.638660697472496
1634,CaGa4O7,CaGa4O7_Va_O2,2.6787,-2.506107837916666,2.192568473700708,2.287998240434402,1.6261113110675054,2,63,-1.8812876656363955,6.484378121505419
1635,CaGa4O7,CaGa4O7_Va_O3,2.6787,-2.506107837916666,2.099390967427051,2.15246393080537,1.0718221455549772,2,79,-1.8812876656363955,6.607956026713236
1636,CaGa4O7,CaGa4O7_Va_O4,2.6787,-2.506107837916666,2.222047636805791,3.094619766232644,-0.1816966149207199,2,95,-1.8812876656363955,7.362839847006367
1637,CaGaBO4,CaGaBO4_Va_O1,4.0537,-2.9093757377380953,2.188593201123475,2.812982007317987,-0.2826467460312591,2,311,-1.8812876656363955,8.942537536181478
1638,CaGaBO4,CaGaBO4_Va_O4,4.0537,-2.9093757377380953,2.1747770956015717,2.9328806742666065,0.5059207684907308,2,335,-1.8812876656363955,8.885590540228495
1639,CaIn2O4,CaIn2O4_Va_O1,2.0752,-2.394796169285714,2.0342771754084517,1.5120940085150172,1.4254280145193088,2,447,-1.5993795332042406,7.078493802250373
1640,CaMg(SiO3)2,CaMg(SiO3)2_Va_O1,5.056100000000001,-3.3468844764999996,2.240869199693262,3.7623023802311546,-1.3870045446708796,2,47,-2.356834901289411,11.387722529503774
1641,CaMg(SiO3)2,CaMg(SiO3)2_Va_O2,5.056100000000001,-3.3468844764999996,2.231624228522082,1.896279671272239,1.722961992136125,2,63,-2.356834901289411,7.537368504294459
1642,CaMg(SiO3)2,CaMg(SiO3)2_Va_O3,5.056100000000001,-3.3468844764999996,2.022506571784655,2.430394617278502,3.397352496683863,2,79,-2.356834901289411,8.854815129089
1643,CaMgGeO4,CaMgGeO4_Va_O1,3.5043999999999995,-2.871467272857142,1.9273864631193447,1.6588338733131098,1.4383807096195125,2,103,-1.502819088333178,8.451883753805642
1644,CaMgGeO4,CaMgGeO4_Va_O2,3.5043999999999995,-2.871467272857142,1.956212346090512,1.780325402562858,2.3681160715326013,2,111,-1.502819088333178,8.618038921962484
1645,CaMgGeO4,CaMgGeO4_Va_O3,3.5043999999999995,-2.871467272857142,1.9816418619735563,2.1053243622751676,2.3994631804107276,2,99,-1.502819088333178,8.311198642408144
1646,CaMgSiO4,CaMgSiO4_Va_O1,4.683,-3.365238211785714,1.9036816924056348,1.945885346646104,2.2485063121106066,2,119,-2.356834901289411,8.935873874636258
1647,CaMgSiO4,CaMgSiO4_Va_O2,4.683,-3.365238211785714,1.9207107619102557,2.0946786633173695,3.174000244986606,2,143,-2.356834901289411,9.113485382139942
1648,CaMgSiO4,CaMgSiO4_Va_O3,4.683,-3.365238211785714,1.9567251696860763,2.2209658958816463,3.388805033719442,2,167,-2.356834901289411,8.730522273567686
1649,CaO,CaO_Va_O1,3.5479,-3.3060156124999995,1.0,1.2018086062036886,3.9617531909655592,2,63,-3.2905001259273035,11.020274752984378
1650,CaSn(BO3)2,CaSn(BO3)2_Va_O1,3.9172,-2.8374268643333345,2.320355363013704,2.7976208853270426,0.3361730083092665,2,269,-1.538575818365933,8.110022034422443
1651,CaSnO3,CaSnO3_Va_O1,3.068,-2.6796842760000006,2.1469451706387996,1.633967709954644,1.37999702968719,2,269,-1.538575818365933,8.156731975870434
1652,Cs12Sn2As6O,Cs12Sn2As6O_Va_O1,0.7696000000000001,-0.5198922095320198,0.791201310070498,1.0869989535004008,3.086143719693084,2,335,-1.538575818365933,7.794037272850204
1653,Cs2Al2As2O7,Cs2Al2As2O7_Va_O1,3.5767,-2.50447628698939,1.9824255200641765,3.0897262460855073,1.6662474765441244,2,287,-1.150088447140494,6.852539343637688
1654,Cs2Al2As2O7,Cs2Al2As2O7_Va_O2,3.5767,-2.50447628698939,1.7799465903286285,2.365795355247751,4.219326226813028,2,191,-1.150088447140494,6.029193607379716
1655,Cs2Al2As2O7,Cs2Al2As2O7_Va_O3,3.5767,-2.50447628698939,2.171134085728217,3.003992722588141,1.7227933517703455,2,311,-1.150088447140494,6.680522281290765
1656,Cs2Al2Sb2O7,Cs2Al2Sb2O7_Va_O1,3.5528999999999997,-2.515293009297082,1.9084868192717543,2.213123848134931,1.856914581115764,2,233,-1.2369755737418262,7.065734457012278
1657,Cs2Al2Sb2O7,Cs2Al2Sb2O7_Va_O2,3.5528999999999997,-2.515293009297082,2.0471868765130923,1.6065783243480625,4.000711770415121,2,197,-1.2369755737418262,5.3245677543906975
1658,Cs2BeO2,Cs2BeO2_Va_O1,2.8190999999999997,-2.0228830126724127,1.184602843015307,2.0400287921043465,3.0195283588234,2,479,-1.793018636425102,8.076469897684353
1659,Cs2BeO2,Cs2BeO2_Va_O2,2.8190999999999997,-2.0228830126724127,1.0609972061391637,1.14828054545211,4.8084594945218,2,455,-1.793018636425102,5.703125673169486
1660,Cs2CeO3,Cs2CeO3_Va_O1,2.5233,-2.6745016659770116,1.3420881524295536,1.3705822028184516,1.7718195463981423,2,431,-1.793018636425102,8.191705145895765
1661,Cs2CeO3,Cs2CeO3_Va_O2,2.5233,-2.6745016659770116,1.2425705671637837,0.9863841571496758,2.018650460862878,2,359,-1.793018636425102,5.551896443868688
1662,Cs2Li2GeO4,Cs2Li2GeO4_Va_O1,3.5806000000000004,-2.1051380158365265,1.2505026491417384,1.6281779424231504,2.60858182944674,2,215,-1.502819088333178,8.215182389578084
1663,Cs2Li2GeO4,Cs2Li2GeO4_Va_O2,3.5806000000000004,-2.1051380158365265,1.2449797845032216,1.7700711978375825,2.6619395998046027,2,251,-1.502819088333178,9.04321837114257
1664,Cs2Li2GeO4,Cs2Li2GeO4_Va_O3,3.5806000000000004,-2.1051380158365265,1.3565996846224582,1.342311365713568,1.936926757164418,2,287,-1.502819088333178,7.052097244479283
1665,Cs2Li2GeO4,Cs2Li2GeO4_Va_O4,3.5806000000000004,-2.1051380158365265,1.2588857501474813,1.805930522346883,2.370093077892412,2,323,-1.502819088333178,9.07733002993048
1666,Cs2Li2SiO4,Cs2Li2SiO4_Va_O1,4.0485,-2.471690085836526,1.288665516529164,2.2116258351157856,3.0790942233829206,2,215,-1.793018636425102,9.666788848294473
1667,Cs2Li2SiO4,Cs2Li2SiO4_Va_O2,4.0485,-2.471690085836526,1.274006013143821,2.024883880365523,3.412618491557089,2,251,-1.793018636425102,9.110357285828291
1668,Cs2Li2SiO4,Cs2Li2SiO4_Va_O3,4.0485,-2.471690085836526,1.2614680654511172,2.211409682046513,3.344503304586007,2,287,-1.793018636425102,9.770873308456135
1669,Cs2Li2SiO4,Cs2Li2SiO4_Va_O4,4.0485,-2.471690085836526,1.3850734505746751,1.6484620709584357,2.7414577411025,2,323,-1.793018636425102,7.574933020026682
1670,Cs2Li3GaO4,Cs2Li3GaO4_Va_O1,3.8867,-2.005658967336206,1.1181967269204964,1.351219035267174,2.7561279055816628,2,79,-1.793018636425102,8.714561390571419
1671,Cs2LiAsO4,Cs2LiAsO4_Va_O2,3.9244,-2.1015164842744247,1.432386789836049,1.822512268131817,2.330724461622332,2,95,-0.6589084382122885,6.682918565017718
1672,Cs2LiAsO4,Cs2LiAsO4_Va_O3,3.9244,-2.1015164842744247,1.381685372698733,1.8813253348679115,2.3811622112513384,2,127,-0.6589084382122885,6.864209678920186
1673,Cs2NaAsO4,Cs2NaAsO4_Va_O1,3.7559,-2.033367830301724,1.4926771316747098,1.8837082383600396,2.2252226078438446,2,215,-0.6589084382122885,6.179012280888518
1674,Cs2PbO2,Cs2PbO2_Va_O1,1.8019,-1.4864209311724128,1.5820424991693416,1.9661133941325843,1.319489954298322,2,287,-1.1369603723458594,7.636500271441571
1675,Cs2PbO2,Cs2PbO2_Va_O2,1.8019,-1.4864209311724128,1.2496640479790222,1.2824712414129944,2.390027700681259,2,323,-1.1369603723458594,6.967422446879272
1676,Cs2PbO2,Cs2PbO2_Va_O3,1.8019,-1.4864209311724128,1.2862496947130024,1.261164042280456,2.3275770959685738,2,305,-1.1369603723458594,6.92512029235859
1677,Cs2PbO2,Cs2PbO2_Va_O4,1.8019,-1.4864209311724128,1.6736420949363475,1.9000637602392312,1.579954318093732,2,359,-1.1369603723458594,6.8562084848613845
1678,Cs2PbO3,Cs2PbO3_Va_O1,1.4961,-1.5408556518103451,1.485559247551684,0.8198797051437268,1.5944419662124112,2,287,-0.2712847561180753,5.3081063041045455
1679,Cs2PbO3,Cs2PbO3_Va_O2,1.4961,-1.5408556518103451,1.7935254477273914,1.5928734516564451,0.1886966471428559,2,431,-0.2712847561180753,7.096128202837028
1680,Cs2Sn(GeO3)3,Cs2Sn(GeO3)3_Va_O1,2.6502,-2.1657504797241387,2.1090346478552253,2.804268136395372,-0.2941571472115205,2,71,-1.502819088333178,8.753571775207996
1681,Cs2Sn(GeO3)3,Cs2Sn(GeO3)3_Va_O2,2.6502,-2.1657504797241387,2.306198702057431,2.0221188404292767,1.4107342519932344,2,119,-1.502819088333178,6.957768924379968
1682,Cs2SnO3,Cs2SnO3_Va_O1,2.5588999999999995,-1.9013199843103443,1.7187298013467722,1.8796787826834027,0.6592790265490731,2,431,-1.538575818365933,7.881367467180427
1683,Cs2SnO3,Cs2SnO3_Va_O2,2.5588999999999995,-1.9013199843103443,1.3977195288843,0.925032086120494,2.698343604647466,2,359,-1.538575818365933,5.8228823142283215
1684,Cs3AlGe2O7,Cs3AlGe2O7_Va_O2,3.4095000000000004,-2.4081763991379304,1.8089711632458905,2.498280737212238,1.4827814610477357,2,207,-1.502819088333178,7.543240879691947
1685,Cs3AlGe2O7,Cs3AlGe2O7_Va_O3,3.4095000000000004,-2.4081763991379304,1.4559114432841045,1.1891952187838166,2.030286705574687,2,199,-1.502819088333178,6.605015038424931
1686,Cs3AlGe2O7,Cs3AlGe2O7_Va_O4,3.4095000000000004,-2.4081763991379304,1.92069500504883,2.8991416044971916,1.1700700050771022,2,191,-1.502819088333178,9.243372411483977
1687,Cs3AlO3,Cs3AlO3_Va_O1,2.5495,-2.1623344291133013,1.0787764553572217,1.0024672997306396,3.879985955266264,2,91,-1.793018636425102,5.864722689595725
1688,Cs3AlO3,Cs3AlO3_Va_O2,2.5495,-2.1623344291133013,1.301673256948105,2.018271449934742,3.118818702218517,2,107,-1.793018636425102,7.700661613187412
1689,Cs3AlO3,Cs3AlO3_Va_O3,2.5495,-2.1623344291133013,1.1636077212086804,1.0139666307100113,3.979260875114659,2,111,-1.793018636425102,5.774548767092202
1690,Cs3As5O9,Cs3As5O9_Va_O2,3.0533,-1.813479687870183,1.784772160448136,2.190229088224017,1.5530902640851243,2,203,-1.150088447140494,5.562470450827536
1691,Cs3BiO3,Cs3BiO3_Va_O1,3.1239,-1.6135073416133006,1.2583858705521815,1.2319948434174932,2.2151650783418657,2,223,-0.9858147743813158,6.037593097795638
1692,Cs3GaO3,Cs3GaO3_Va_O1,2.7652,-1.7918229108990151,1.152682345968999,1.1952467384897871,2.6585870210035263,2,111,-1.793018636425102,6.358658159918806
1693,Cs3GaO3,Cs3GaO3_Va_O2,2.7652,-1.7918229108990151,1.368666003408448,2.0094397544209035,1.5103695039975775,2,107,-1.793018636425102,7.8551311097388865
1694,Cs3GaO3,Cs3GaO3_Va_O3,2.7652,-1.7918229108990151,1.147523410796776,1.209305153216084,2.6391238433890143,2,103,-1.793018636425102,6.0851589087086655
1695,Cs3InO3,Cs3InO3_Va_O1,2.162,-1.6228296433990148,1.0806742389079749,0.8131442807694521,2.6184621975611218,2,95,-1.5993795332042406,6.017511959359828
1696,Cs3InO3,Cs3InO3_Va_O2,2.162,-1.6228296433990148,1.0714780534549535,0.8084876745712968,2.6152465035622003,2,103,-1.5993795332042406,6.479165650916062
1697,Cs3InO3,Cs3InO3_Va_O3,2.162,-1.6228296433990148,1.291208814847411,1.5622893014384072,1.9479313795529152,2,111,-1.5993795332042406,7.130850393530958
1698,Cs3TlO3,Cs3TlO3_Va_O1,1.721,-1.3588165867323485,1.0177236782920165,1.016817471577232,1.3514328854371094,2,111,-0.5778080287901701,5.924031420002907
1699,Cs3TlO3,Cs3TlO3_Va_O2,1.721,-1.3588165867323485,1.2191740627970171,1.5381944522650497,0.6941590089551788,2,107,-0.5778080287901701,6.113843220837974
1700,Cs3TlO3,Cs3TlO3_Va_O3,1.721,-1.3588165867323485,1.0343447315919527,0.9991333689248044,1.3393566846161322,2,103,-0.5778080287901701,5.46080913259094
1701,Cs6Ge2O7,Cs6Ge2O7_Va_O1,3.0572999999999997,-1.955927745505748,1.8372139095871296,2.6132137682028223,0.9727602042355604,2,287,-1.502819088333178,9.522886974733561
1702,Cs6Ge2O7,Cs6Ge2O7_Va_O2,3.0572999999999997,-1.955927745505748,1.308838888828172,1.5181205732351406,2.3549337305776494,2,359,-1.502819088333178,7.078111615743486
1703,Cs6Ge2O7,Cs6Ge2O7_Va_O3,3.0572999999999997,-1.955927745505748,1.2737514387069315,1.557822307412096,2.3127457671821436,2,347,-1.502819088333178,7.196227189896481
1704,Cs6Si2O7,Cs6Si2O7_Va_O1,3.4442,-2.38790383483908,1.307232590920452,1.9356571815195789,3.400453375152022,2,275,-1.793018636425102,7.792482126379907
1705,Cs6Si2O7,Cs6Si2O7_Va_O2,3.4442,-2.38790383483908,1.9097821348071764,3.5076203644962196,1.3418678511074211,2,227,-1.793018636425102,11.130583212052537
1706,Cs6Si2O7,Cs6Si2O7_Va_O3,3.4442,-2.38790383483908,1.3401086576177912,1.8835480322680136,3.46742063153314,2,359,-1.793018636425102,7.6073247397604575
1707,Cs6Si2O7,Cs6Si2O7_Va_O4,3.4442,-2.38790383483908,1.3223868432825878,1.8399504589532645,3.494978347532891,2,323,-1.793018636425102,7.587047638742996
1708,CsAlSiO4,CsAlSiO4_Va_O1,4.674899999999999,-3.1883621500615753,2.102163835370497,2.39786506938401,3.2367847970396837,2,191,-1.793018636425102,8.288216675451402
1709,CsAlSiO4,CsAlSiO4_Va_O2,4.674899999999999,-3.1883621500615753,1.8842462960671509,2.4864837916854188,3.3810646305561884,2,239,-1.793018636425102,8.50732410669965
1710,CsAlSiO4,CsAlSiO4_Va_O3,4.674899999999999,-3.1883621500615753,1.886712736944713,2.481598632847279,3.378057975085451,2,287,-1.793018636425102,8.505933401776867
1711,CsAlSiO4,CsAlSiO4_Va_O4,4.674899999999999,-3.1883621500615753,2.0028858383364754,2.455512794576035,3.2986552010806576,2,335,-1.793018636425102,8.291031192185693
1712,CsBO2,CsBO2_Va_O1,3.9296,-2.6054637117744255,1.8364608101788675,4.217811019469719,1.2963684222255822,2,131,-1.793018636425102,11.86915449376016
1713,CsBO2,CsBO2_Va_O2,3.9296,-2.6054637117744255,1.3811742318426656,2.164494106944802,5.047833740978778,2,143,-1.793018636425102,7.808447220764524
1714,CsBeAsO4,CsBeAsO4_Va_O1,3.9914,-2.2954097136330054,2.0637709368014594,2.5401353722620845,1.1602669759389412,2,255,-0.6589084382122885,6.528905256915397
1715,CsBeAsO4,CsBeAsO4_Va_O2,3.9914,-2.2954097136330054,2.01960060596143,2.5714787552936484,1.004837344608299,2,319,-0.6589084382122885,6.683403883713395
1716,CsBeAsO4,CsBeAsO4_Va_O3,3.9914,-2.2954097136330054,2.1750823634371104,2.440555456689672,0.1455938585429033,2,383,-0.6589084382122885,6.423841274150052
1717,CsBeAsO4,CsBeAsO4_Va_O4,3.9914,-2.2954097136330054,2.010787454927322,2.578551122059926,1.0945798230078334,2,447,-0.6589084382122885,6.63293659803346
1718,CsLi5(BO3)2,CsLi5(BO3)2_Va_O1,3.5902,-2.499420128066502,1.362320602446628,2.59199434719667,2.5855057046584737,2,447,-1.793018636425102,9.704153145138793
1719,CsLi5(BO3)2,CsLi5(BO3)2_Va_O2,3.5902,-2.499420128066502,1.2891098434666748,2.6831533723087686,2.1250341582323133,2,351,-1.793018636425102,10.662297283539232
1720,CsNa2BO3,CsNa2BO3_Va_O1,3.5757999999999996,-2.2313060886001637,1.2874669496287412,2.6312223309103437,2.8987212300623137,2,111,-1.793018636425102,8.554217679626818
1721,CsNa2BO3,CsNa2BO3_Va_O2,3.5757999999999996,-2.2313060886001637,1.345609393300134,2.5216352304073997,3.4547208265153055,2,95,-1.793018636425102,8.254500722811638
1722,CsSbO2,CsSbO2_Va_O1,2.3945000000000003,-1.8573301069827588,1.8755274292078843,2.790023883755725,0.2901362657081989,2,383,-1.2369755737418262,8.687072172369792
1723,CsTlO,CsTlO_Va_O1,1.4732000000000005,-1.1640747204214557,1.3207425225196885,1.9117024702670256,1.0774105680425312,2,95,-0.8674893634033586,7.087904758499974
1724,Ga2O3,Ga2O3_Va_O1,2.2114,-2.268996668999999,2.3894413671718,2.8345721001720285,0.3538878002447934,2,95,-1.8812876656363955,7.3410265160065125
1725,Ga2O3,Ga2O3_Va_O2,2.2114,-2.268996668999999,2.3313459685068687,2.8870391212766604,-0.6841803673725178,2,127,-1.8812876656363955,9.106977200814203
1726,Ga2O3,Ga2O3_Va_O3,2.2114,-2.268996668999999,2.4005128617292173,2.4635876701348796,0.2207117570890133,2,159,-1.8812876656363955,7.238438154319156
1727,Ga2PbO4,Ga2PbO4_Va_O1,3.4200000000000004,-2.070018908571428,2.3666933300950235,2.5900641261439423,-0.0096903865058273,2,191,-1.1369603723458594,6.536798083743593
1728,Ga2PbO4,Ga2PbO4_Va_O2,3.4200000000000004,-2.070018908571428,2.350128133368874,2.489193764010925,0.1435790881525649,2,239,-1.1369603723458594,6.546171292431161
1729,Ga2PbO4,Ga2PbO4_Va_O3,3.4200000000000004,-2.070018908571428,2.3824577020851097,2.701914834825696,0.3714294623306167,2,335,-1.1369603723458594,6.12480605100631
1730,Ga4GeO8,Ga4GeO8_Va_O1,2.2165000000000004,-2.232362397307691,2.3793666061554513,3.090454798134748,0.6069895235660492,2,55,-1.502819088333178,7.3267196116737106
1731,Ga4GeO8,Ga4GeO8_Va_O2,2.2165000000000004,-2.232362397307691,2.590542132745094,2.867799700349588,-0.333438295266784,2,71,-1.502819088333178,9.557383210074809
1732,Ga4GeO8,Ga4GeO8_Va_O3,2.2165000000000004,-2.232362397307691,2.328462466875143,2.9082201134507284,-0.8972251661709989,2,103,-1.502819088333178,9.122053022358509
1733,Ga4GeO8,Ga4GeO8_Va_O4,2.2165000000000004,-2.232362397307691,2.5347687117833875,2.5584330016921335,-0.015676545974367,2,95,-1.502819088333178,8.686244490563947
1734,GaBPbO4,GaBPbO4_Va_O1,3.1614,-2.299635754880952,2.388205813525239,3.322651171339009,-0.0702490606607306,2,191,-1.1369603723458594,9.155493594996823
1735,GaBPbO4,GaBPbO4_Va_O2,3.1614,-2.299635754880952,2.534567709111244,2.7772845186688273,-0.0467149495546812,2,239,-1.1369603723458594,7.177196918521516
1736,GaBPbO4,GaBPbO4_Va_O3,3.1614,-2.299635754880952,2.478020335777268,3.343252051043186,-0.1184800781260411,2,335,-1.1369603723458594,8.402797633524962
1737,GaSbO4,GaSbO4_Va_O1,0.9857999999999992,-2.0545152529166666,2.715256353492882,3.3752613355007526,-0.3025062322126399,2,127,-0.5208045461292565,7.226315649152264
1738,GaSbO4,GaSbO4_Va_O2,0.9857999999999992,-2.0545152529166666,2.654743646507118,2.841521717099752,-0.0700653378202438,2,191,-0.5208045461292565,7.341977326240402
1739,GePbO3,GePbO3_Va_O2,2.5365,-1.9292281530000004,2.6186738845561237,2.8269104136288705,0.35707660110073,2,161,-1.1369603723458594,6.711699889701398