,formula,full_name,band_gap,formation_energy,nn_ave_eleneg,o2p_center_from_vbm,vacancy_formation_energy,charge,vacancy_index,vr_max,Eb_sum
556,Ca2GeO4,Ca2GeO4_Va_O1,3.5397999999999996,-2.9902279757142853,1.8187175870527823,1.6975885421144523,3.5447628421393604,1,103,-1.502819088333178,9.275456464825368
557,Ca2GeO4,Ca2GeO4_Va_O2,3.5397999999999996,-2.9902279757142853,1.9067559486019268,1.524341258968782,3.392799424927317,1,107,-1.502819088333178,9.275456464825368
558,Ca2GeO4,Ca2GeO4_Va_O3,3.5397999999999996,-2.9902279757142853,1.8443538481348536,2.0001051572391737,3.282883838504123,1,111,-1.502819088333178,9.275456464825368
559,Ca2PbO4,Ca2PbO4_Va_O1,1.5421000000000005,-2.551106224285714,1.8408434446115292,1.4609270112128203,2.444521250923909,1,299,-0.2712847561180753,9.026015168365973
560,Ca2Sb2O7,Ca2Sb2O7_Va_O1,1.9044000000000008,-2.5944479686363637,2.456497016766801,2.7728875055574296,2.048140909120093,1,255,-0.5208045461292565,8.49709185041511
561,Ca2Sb2O7,Ca2Sb2O7_Va_O2,1.9044000000000008,-2.5944479686363637,2.4988791358902342,2.9941408148235684,2.1177067284774207,1,287,-0.5208045461292565,4.823666932753651
562,Ca2Sb2O7,Ca2Sb2O7_Va_O3,1.9044000000000008,-2.5944479686363637,2.0475663985212806,1.6521068381754258,2.8975680019197156,1,351,-0.5208045461292565,7.9219708428690145
563,Ca2SiO4,Ca2SiO4_Va_O1,4.253,-3.4766319846428573,1.8885247453887923,1.8762993523597489,4.662954824151959,1,119,-2.356834901289411,10.327840665393381
564,Ca2SiO4,Ca2SiO4_Va_O2,4.253,-3.4766319846428573,1.794554724261243,2.1087456067238777,4.632168088296648,1,143,-2.356834901289411,10.327840665393381
565,Ca2SiO4,Ca2SiO4_Va_O3,4.253,-3.4766319846428573,1.8128060079352744,2.2717234534008717,4.69846787620051,1,167,-2.356834901289411,10.327840665393381
566,Ca2Sn3O8,Ca2Sn3O8_Va_O1,2.5858,-2.5545313888461525,2.354002292434437,1.5835623089349955,3.0727149220367744,1,55,-1.538575818365933,6.612179827615198
567,Ca2Sn3O8,Ca2Sn3O8_Va_O2,2.5858,-2.5545313888461525,2.385825707804043,2.2732986530131076,2.7882954924811196,1,71,-1.538575818365933,8.999913512007433
568,Ca2Sn3O8,Ca2Sn3O8_Va_O3,2.5858,-2.5545313888461525,2.1800859998807605,1.8137598305077427,3.1383706741321697,1,103,-1.538575818365933,8.448892286445927
569,Ca2SnO4,Ca2SnO4_Va_O1,2.841899999999999,-2.886048206428571,1.7850900552447395,1.4545719027830912,3.797814247775304,1,299,-1.538575818365933,9.734583519715152
570,Ca2SnO4,Ca2SnO4_Va_O2,2.841899999999999,-2.886048206428571,2.048321038806505,1.641962653738677,3.3487790305630636,1,419,-1.538575818365933,10.285604745276657
571,Ca3(BO3)2,Ca3(BO3)2_Va_O1,4.9902,-3.288179811212121,1.82848968227586,2.5767985882804023,4.361337803246379,1,65,-2.1905056483979153,5.436482883899198
572,Ca4As2O,Ca4As2O_Va_O1,1.0927000000000002,-1.8127497364285716,1.0107909576537852,3.667272518986856,4.333444981451109,1,125,-3.2905001259273035,11.020274752984378
574,Ca4Sb2O,Ca4Sb2O_Va_O1,0.7953999999999999,-1.7807082792857143,1.005707884295004,3.7018123291650302,4.155294323413599,1,223,-3.2905001259273035,11.020274752984378
575,CaAl4O7,CaAl4O7_Va_O1,4.1142,-3.4639722058333335,2.088177094032116,3.144216966527723,4.22405222847978,1,167,-2.8945619964631555,7.986851631586046
576,CaAl4O7,CaAl4O7_Va_O2,4.1142,-3.4639722058333335,2.1039549337889567,2.138266166770475,5.035216993022254,1,215,-2.8945619964631555,7.161280213221427
577,CaAl4O7,CaAl4O7_Va_O3,4.1142,-3.4639722058333335,1.963616567386678,2.110231573195404,5.042351922698292,1,287,-2.8945619964631555,7.161280213221427
578,CaAl4O7,CaAl4O7_Va_O4,4.1142,-3.4639722058333335,2.0158749846122253,2.377521384129426,4.383848352954572,1,263,-2.8945619964631555,7.161280213221427
579,CaGa4O7,CaGa4O7_Va_O1,2.6787,-2.506107837916666,2.1316318553997298,2.3698296539918005,3.2797292040919785,1,47,-1.8812876656363955,6.778257657594404
580,CaGa4O7,CaGa4O7_Va_O2,2.6787,-2.506107837916666,2.192568473700708,2.287998240434402,3.5442432513847963,1,63,-1.8812876656363955,6.778257657594404
581,CaGa4O7,CaGa4O7_Va_O3,2.6787,-2.506107837916666,2.099390967427051,2.15246393080537,3.616042720752844,1,79,-1.8812876656363955,6.778257657594404
582,CaGa4O7,CaGa4O7_Va_O4,2.6787,-2.506107837916666,2.222047636805791,3.094619766232644,2.874702212623485,1,95,-1.8812876656363955,7.412317798145512
583,CaIn2O4,CaIn2O4_Va_O1,2.0752,-2.394796169285714,2.0342771754084517,1.5120940085150172,3.1854673968987433,1,447,-1.5993795332042406,7.44578175863709
585,CaSnO3,CaSnO3_Va_O1,3.068,-2.6796842760000006,2.1469451706387996,1.633967709954644,3.206365027120409,1,269,-1.538575818365933,8.448892286445927
586,Cs2BeO2,Cs2BeO2_Va_O1,2.8190999999999997,-2.0228830126724127,1.184602843015307,2.0400287921043465,4.497850387398493,1,479,-1.793018636425102,6.117992939414616
587,Cs2BeO2,Cs2BeO2_Va_O2,2.8190999999999997,-2.0228830126724127,1.0609972061391637,1.14828054545211,4.873400574330091,1,455,-1.793018636425102,3.058996469707308
588,Cs2CeO3,Cs2CeO3_Va_O1,2.5233,-2.6745016659770116,1.3420881524295536,1.3705822028184516,3.0876665246597605,1,431,-1.793018636425102,10.401324734633178
589,Cs2CeO3,Cs2CeO3_Va_O2,2.5233,-2.6745016659770116,1.2425705671637837,0.9863841571496758,2.863454320375509,1,359,-1.793018636425102,7.798674791599991
590,Cs2Pb2O3,Cs2Pb2O3_Va_O1,1.5981,-1.5268511915517244,1.7115984963858488,2.1850257895605347,2.397608510271099,1,223,-1.1369603723458594,8.647985220912663
591,Cs2PbO2,Cs2PbO2_Va_O1,1.8019,-1.4864209311724128,1.5820424991693416,1.9661133941325843,2.4759993178272692,1,287,-1.1369603723458594,8.647985220912663
592,Cs2PbO2,Cs2PbO2_Va_O2,1.8019,-1.4864209311724128,1.2496640479790222,1.2824712414129944,2.8343057201642594,1,323,-1.1369603723458594,8.221011246881433
593,Cs2PbO2,Cs2PbO2_Va_O3,1.8019,-1.4864209311724128,1.2862496947130024,1.261164042280456,2.774782692782117,1,305,-1.1369603723458594,8.221011246881433
594,Cs2PbO2,Cs2PbO2_Va_O4,1.8019,-1.4864209311724128,1.6736420949363475,1.9000637602392312,2.4536079131439203,1,359,-1.1369603723458594,7.348979008770962
595,Cs2PbO3,Cs2PbO3_Va_O2,1.4961,-1.5408556518103451,1.7935254477273914,1.5928734516564451,1.455164739397054,1,431,-0.2712847561180753,8.554355514652912
596,Cs2SnO3,Cs2SnO3_Va_O1,2.5588999999999995,-1.9013199843103443,1.7187298013467722,1.8796787826834027,2.5972104927769593,1,431,-1.538575818365933,9.971492217351273
597,Cs2SnO3,Cs2SnO3_Va_O2,2.5588999999999995,-1.9013199843103443,1.3977195288843,0.925032086120494,2.958510337604378,1,359,-1.538575818365933,2.3877336843922343
598,Cs3AlO3,Cs3AlO3_Va_O1,2.5495,-2.1623344291133013,1.0787764553572217,1.0024672997306396,4.551152806765132,1,91,-1.793018636425102,2.6622838771953488
599,Cs3AlO3,Cs3AlO3_Va_O2,2.5495,-2.1623344291133013,1.301673256948105,2.018271449934742,4.567961223418582,1,107,-1.793018636425102,5.3245677543906975
600,Cs3AlO3,Cs3AlO3_Va_O3,2.5495,-2.1623344291133013,1.1636077212086804,1.0139666307100113,4.620566212250027,1,111,-1.793018636425102,2.6622838771953488
601,Cs3As5O9,Cs3As5O9_Va_O1,3.0533,-1.813479687870183,2.300759668132267,3.5853851350950476,1.2491575876495,1,167,-1.150088447140494,6.873510227614322
602,Cs3As5O9,Cs3As5O9_Va_O2,3.0533,-1.813479687870183,1.784772160448136,2.190229088224017,1.5449279490025292,1,203,-1.150088447140494,7.333773750232263
603,Cs3BiO3,Cs3BiO3_Va_O1,3.1239,-1.6135073416133006,1.2583858705521815,1.2319948434174932,2.4546740547651975,1,223,-0.9858147743813158,8.138202755825585
604,Cs3GaO3,Cs3GaO3_Va_O1,2.7652,-1.7918229108990151,1.152682345968999,1.1952467384897871,3.5916331667340913,1,111,-1.793018636425102,2.4707725993818372
605,Cs3GaO3,Cs3GaO3_Va_O2,2.7652,-1.7918229108990151,1.368666003408448,2.0094397544209035,3.2862315655613257,1,107,-1.793018636425102,4.9415451987636745
606,Cs3GaO3,Cs3GaO3_Va_O3,2.7652,-1.7918229108990151,1.147523410796776,1.209305153216084,3.543871836989065,1,103,-1.793018636425102,2.4707725993818372
607,Cs3InO3,Cs3InO3_Va_O1,2.162,-1.6228296433990148,1.0806742389079749,0.8131442807694521,2.8728859174887065,1,95,-1.5993795332042406,7.065714615168924
608,Cs3InO3,Cs3InO3_Va_O2,2.162,-1.6228296433990148,1.0714780534549535,0.8084876745712968,2.932476287148829,1,103,-1.5993795332042406,9.663727039452324
609,Cs3InO3,Cs3InO3_Va_O3,2.162,-1.6228296433990148,1.291208814847411,1.5622893014384072,2.885603529301939,1,111,-1.5993795332042406,8.935404381771043
610,Cs3SbO3,Cs3SbO3_Va_O1,3.1413,-1.7730991862561585,1.3014648995320195,1.781327299744202,2.704202613258878,1,223,-1.2369755737418262,9.948673301116997
611,Cs3TlO3,Cs3TlO3_Va_O1,1.721,-1.3588165867323485,1.0177236782920165,1.016817471577232,1.8754182751259871,1,111,-0.5778080287901701,9.094554843014153
612,Cs3TlO3,Cs3TlO3_Va_O2,1.721,-1.3588165867323485,1.2191740627970171,1.5381944522650497,1.7760031273091583,1,107,-0.5778080287901701,7.797059988894702
613,Cs3TlO3,Cs3TlO3_Va_O3,1.721,-1.3588165867323485,1.0343447315919527,0.9991333689248044,1.835725330236243,1,103,-0.5778080287901701,6.496542418730753
614,Cs6Ge2O7,Cs6Ge2O7_Va_O1,3.0572999999999997,-1.955927745505748,1.8372139095871296,2.6132137682028223,2.7945434513013163,1,287,-1.502819088333178,7.530638176666356
615,Cs6Ge2O7,Cs6Ge2O7_Va_O2,3.0572999999999997,-1.955927745505748,1.308838888828172,1.5181205732351406,3.1502051904418567,1,359,-1.502819088333178,3.765319088333178
616,Cs6Ge2O7,Cs6Ge2O7_Va_O3,3.0572999999999997,-1.955927745505748,1.2737514387069315,1.557822307412096,3.1882217077406096,1,347,-1.502819088333178,3.765319088333178
617,Cs6Ge2O7,Cs6Ge2O7_Va_O4,3.0572999999999997,-1.955927745505748,1.2851526227502346,1.4882558943095323,3.1951965795965975,1,335,-1.502819088333178,3.765319088333178
618,Cs6Si2O7,Cs6Si2O7_Va_O1,3.4442,-2.38790383483908,1.307232590920452,1.9356571815195789,4.531296677369129,1,275,-1.793018636425102,4.817703288901193
619,Cs6Si2O7,Cs6Si2O7_Va_O2,3.4442,-2.38790383483908,1.9097821348071764,3.5076203644962196,3.9560642255786913,1,227,-1.793018636425102,9.635406577802385
620,Cs6Si2O7,Cs6Si2O7_Va_O3,3.4442,-2.38790383483908,1.3401086576177912,1.8835480322680136,4.532326706579647,1,359,-1.793018636425102,4.817703288901193
621,Cs6Si2O7,Cs6Si2O7_Va_O4,3.4442,-2.38790383483908,1.3223868432825878,1.8399504589532645,4.541007247020234,1,323,-1.793018636425102,4.817703288901193
622,CsBO2,CsBO2_Va_O1,3.9296,-2.6054637117744255,1.8364608101788675,4.217811019469719,3.7000869535320167,1,131,-1.793018636425102,10.872965767798396
623,CsBO2,CsBO2_Va_O2,3.9296,-2.6054637117744255,1.3811742318426656,2.164494106944802,5.154786458826624,1,143,-1.793018636425102,5.436482883899198
624,CsSbO2,CsSbO2_Va_O1,2.3945000000000003,-1.8573301069827588,1.8755274292078843,2.790023883755725,2.21054496482906,1,383,-1.2369755737418262,10.804303117242089
625,CsTlO,CsTlO_Va_O1,1.4732000000000005,-1.1640747204214557,1.3207425225196885,1.9117024702670256,2.0116534403137116,1,95,-0.8674893634033586,7.944507999828461
626,Ga2O3,Ga2O3_Va_O1,2.2114,-2.268996668999999,2.3894413671718,2.8345721001720285,2.8563129462292114,1,95,-1.8812876656363955,7.412317798145512
627,Ga2O3,Ga2O3_Va_O2,2.2114,-2.268996668999999,2.3313459685068687,2.8870391212766604,2.642667951489239,1,127,-1.8812876656363955,9.883090397527349
628,Ga2O3,Ga2O3_Va_O3,2.2114,-2.268996668999999,2.4005128617292173,2.4635876701348796,2.90488314721856,1,159,-1.8812876656363955,7.412317798145512
629,Ga2PbO4,Ga2PbO4_Va_O1,3.4200000000000004,-2.070018908571428,2.3666933300950235,2.5900641261439423,2.67618451787835,1,191,-1.1369603723458594,6.667525384936605
630,Ga2PbO4,Ga2PbO4_Va_O2,3.4200000000000004,-2.070018908571428,2.350128133368874,2.489193764010925,2.7984054963289813,1,239,-1.1369603723458594,4.9415451987636745
631,Ga2PbO4,Ga2PbO4_Va_O3,3.4200000000000004,-2.070018908571428,2.3824577020851097,2.701914834825696,2.8596353481017935,1,335,-1.1369603723458594,6.667525384936605
632,Ga4GeO8,Ga4GeO8_Va_O1,2.2165000000000004,-2.232362397307691,2.3793666061554513,3.090454798134748,2.9135221222982146,1,55,-1.502819088333178,7.412317798145512
633,Ga4GeO8,Ga4GeO8_Va_O2,2.2165000000000004,-2.232362397307691,2.590542132745094,2.867799700349588,2.572311366703765,1,71,-1.502819088333178,10.001410776048193
634,GaAsO4,GaAsO4_Va_O1,3.1853,-1.9411355259722216,2.715514224375069,2.473321477298566,1.3100578473446636,1,47,-0.6589084382122885,5.316389042951049
635,GaAsO4,GaAsO4_Va_O2,3.1853,-1.9411355259722216,2.719485775624932,2.4577082162698316,1.7142582460189173,1,71,-0.6589084382122885,5.316389042951049
636,Ge3Sb2O9,Ge3Sb2O9_Va_O1,2.7623,-1.9797399339285713,2.691501831277756,3.277237424301235,1.8352725648844108,1,87,-1.2369755737418262,7.2189613287416705
637,GeO2,GeO2_Va_O1,3.0522,-2.077037438333334,2.725,2.262441673488334,2.8861973534256427,1,71,-1.502819088333178,7.530638176666356
638,GePbO3,GePbO3_Va_O2,2.5365,-1.9292281530000004,2.6186738845561237,2.8269104136288705,1.9985494945736104,1,161,-1.1369603723458594,8.943259646851967
639,GePbO3,GePbO3_Va_O3,2.5365,-1.9292281530000004,2.6719584035434787,2.8677407307027503,2.198191898782447,1,179,-1.1369603723458594,7.217279460679038
640,InBO3,InBO3_Va_O1,2.7299,-2.460089823833333,2.4200000000000004,2.938655761671348,3.796390813307494,1,269,-1.5993795332042406,9.175862417103438
641,K2BeO2,K2BeO2_Va_O1,2.9366000000000003,-2.1087224357000003,1.0788354602723205,1.1404806477997904,5.163893337289377,1,455,-1.8820736227458112,3.058996469707308
642,K2BeO2,K2BeO2_Va_O2,2.9366000000000003,-2.1087224357000003,1.1792865484720894,2.165033297398809,4.742982562926423,1,479,-1.8820736227458112,6.117992939414616
643,K2MgO2,K2MgO2_Va_O1,2.5940000000000003,-1.9796745647,1.0370545008364616,1.037646905077546,4.766037959143095,1,79,-1.8820736227458112,3.448381525382161
645,K2Pb2O3,K2Pb2O3_Va_O1,1.5620000000000005,-1.5674005930000003,1.6435533525261856,2.440610641714416,2.554019277455571,1,223,-1.1369603723458594,7.568111727113482
646,K2PbO2,K2PbO2_Va_O1,1.8729,-1.5445868726999992,1.5280700757987018,1.898156144499617,2.5819897758700217,1,287,-1.1369603723458594,7.568111727113482
647,K2PbO2,K2PbO2_Va_O2,1.8729,-1.5445868726999992,1.22109028649284,1.2729591666383462,3.0487539594634914,1,323,-1.1369603723458594,6.871169379632459
648,K2PbO2,K2PbO2_Va_O3,1.8729,-1.5445868726999992,1.241948254313536,1.1819441292291633,3.03423931882561,1,305,-1.1369603723458594,6.871169379632459
649,K2PbO2,K2PbO2_Va_O4,1.8729,-1.5445868726999992,1.6398893590728936,1.866650441134311,2.608380711495526,1,359,-1.1369603723458594,6.539073888421576
650,K2SnO3,K2SnO3_Va_O1,2.1971,-1.960791325583334,1.6419808485156369,1.9660257004440127,2.7083163234545067,1,359,-1.538575818365933,8.891618723552092
651,K2SnO3,K2SnO3_Va_O2,2.1971,-1.960791325583334,1.4201159474305936,0.981756732522758,3.071916170175963,1,431,-1.538575818365933,6.503885039159857
652,K3AlO3,K3AlO3_Va_O1,2.9283,-2.2661893055714293,1.0800495065327116,1.0387619461920332,4.9804764836406115,1,95,-1.8820736227458112,8.836510909346782
653,K3AlO3,K3AlO3_Va_O2,2.9283,-2.2661893055714293,1.2786564924728616,2.053009951415153,4.684701807750381,1,111,-1.8820736227458112,6.353605593082603
654,K3BiO3,K3BiO3_Va_O1,2.9837,-1.6843301366428576,1.1934222549807096,1.288544118901772,2.2745174388482727,1,447,-0.9858147743813158,6.7883608885766105
657,K3GaO3,K3GaO3_Va_O1,2.6601,-1.896276210928572,1.1061070957060146,1.0603584466270697,3.8521601695684087,1,111,-1.8812876656363955,8.64499963153327
658,K3GaO3,K3GaO3_Va_O2,2.6601,-1.896276210928572,1.333852158847869,1.8971655830202352,3.4407180467901943,1,87,-1.8812876656363955,5.97058303745558
659,K3SbO3,K3SbO3_Va_O1,3.2578,-1.824618118785715,1.2538072174838404,1.6317101373212508,2.9598832095543823,1,223,-1.2369755737418262,8.598831433868021
660,K4Be3O5,K4Be3O5_Va_O1,3.2212,-2.308588006000001,1.257701346762865,2.184786527545679,5.304838265804646,1,63,-1.8820736227458112,6.117992939414616
661,K4Be3O5,K4Be3O5_Va_O2,3.2212,-2.308588006000001,1.183539486966224,1.3781464907697278,4.82410303120105,1,79,-1.8820736227458112,10.23414429418224
662,K4Be3O5,K4Be3O5_Va_O3,3.2212,-2.308588006000001,1.184784264141722,1.4398180871089854,4.754746225019637,1,95,-1.8820736227458112,6.117992939414616
663,K4PbO4,K4PbO4_Va_O1,1.6806,-1.5853561968888892,1.2224163988574512,0.8796687145391631,2.217789534479252,1,233,-0.2712847561180753,6.824354526502583
664,K4PbO4,K4PbO4_Va_O2,1.6806,-1.5853561968888892,1.1979646371667434,0.8175647508665369,2.312484327438762,1,251,-0.2712847561180753,6.824354526502583
665,K4PbO4,K4PbO4_Va_O3,1.6806,-1.5853561968888892,1.2120385651215948,0.8685292194312457,2.0083447538485046,1,323,-0.2712847561180753,6.824354526502583
666,K4PbO4,K4PbO4_Va_O4,1.6806,-1.5853561968888892,1.3188050139552487,0.9202323024462608,1.847330687533206,1,305,-0.2712847561180753,4.7662788491187715
667,K4SnO4,K4SnO4_Va_O1,2.3496,-1.833078164111112,1.1516050551456698,0.9923581387123116,3.37678564136883,1,215,-1.538575818365933,7.532922877851763
668,K4SnO4,K4SnO4_Va_O2,2.3496,-1.833078164111112,1.1681144091918765,1.0352734729656528,3.116226486433191,1,251,-1.538575818365933,7.532922877851763
669,K4SnO4,K4SnO4_Va_O3,2.3496,-1.833078164111112,1.182490890443199,1.056643674357346,3.279844265611324,1,287,-1.538575818365933,7.532922877851763
670,K4SnO4,K4SnO4_Va_O4,2.3496,-1.833078164111112,1.2507091155316088,1.0674981018668082,3.0525128451618926,1,323,-1.538575818365933,5.474847200467951
671,K6MgO4,K6MgO4_Va_O1,1.7312,-1.5861545939090913,0.9224249235006576,0.7547089892170609,4.571643844391261,1,191,-1.8820736227458112,1.7241907626910804
672,K6MgO4,K6MgO4_Va_O2,1.7312,-1.5861545939090913,0.9188701482320633,0.7077045917073994,4.445217639213089,1,263,-1.8820736227458112,8.92745563353442
673,K6Si2O7,K6Si2O7_Va_O1,3.5319,-2.4870975168666662,1.790471193679351,3.797042472662029,3.9435497903432744,1,251,-1.8820736227458112,9.635406577802385
674,K6Si2O7,K6Si2O7_Va_O2,3.5319,-2.4870975168666662,1.294650795359,1.7793668779087084,4.7897512475867865,1,359,-1.8820736227458112,4.817703288901193
675,K6Si2O7,K6Si2O7_Va_O3,3.5319,-2.4870975168666662,1.2739813815063414,1.7761314716497294,4.762226607959575,1,299,-1.8820736227458112,4.817703288901193
676,K6Si2O7,K6Si2O7_Va_O4,3.5319,-2.4870975168666662,1.2557634113310585,1.8032797918292611,4.802013150280963,1,347,-1.8820736227458112,4.817703288901193
677,KAsO2,KAsO2_Va_O1,3.7234,-1.893294109499999,2.0428502601032266,3.2521215720271996,1.5395874978376007,1,143,-1.150088447140494,6.873510227614322
678,KAsO2,KAsO2_Va_O2,3.7234,-1.893294109499999,1.588438492138496,2.063522492275746,2.5689774178471234,1,191,-1.150088447140494,7.5529064685747835
679,KBO2,KBO2_Va_O1,4.124499999999999,-2.6493241330416666,1.808379796125676,4.31807050059917,3.8515005627139023,1,107,-1.8820736227458112,10.872965767798396
680,KBO2,KBO2_Va_O2,4.124499999999999,-2.6493241330416666,1.393001769043842,2.1606247264216587,5.338769835704799,1,143,-1.8820736227458112,5.436482883899198
681,KBiO2,KBiO2_Va_O1,1.6872000000000005,-1.7274063657499994,1.6909699068975024,2.182037568463405,2.265751824220533,1,191,-0.9858147743813158,6.37345690630988
682,KInO2,KInO2_Va_O1,2.1456,-1.91814239325,1.635850705304314,1.3579253909924716,2.766709773947759,1,431,-1.5993795332042406,8.696182815882079
683,KSbO2,KSbO2_Va_O1,1.8589,-1.8866991319999995,1.802212692901336,2.920970269980452,2.301834696591606,1,191,-1.2369755737418262,9.994397996892703
684,KSbO3,KSbO3_Va_O1,2.7925,-2.0533213286,2.2357932253282184,1.8010702005981054,2.3911066557473317,1,269,-0.5208045461292565,6.881742610137463
685,KTlO,KTlO_Va_O1,1.0755,-1.2013808837777784,1.3166777995745214,2.1122458826960884,2.097587966711301,1,95,-0.8674893634033586,7.1346028794790755
686,Li2GeO3,Li2GeO3_Va_O1,3.4576,-2.322119386944445,1.7564349653506546,2.991069972713284,2.8993290834322334,1,79,-1.502819088333178,10.544837371346368
687,Li2GeO3,Li2GeO3_Va_O2,3.4576,-2.322119386944445,1.3652047087203154,1.5468594223209264,3.248557471547689,1,95,-1.502819088333178,8.286617880353196
689,Li2Si2O5,Li2Si2O5_Va_O1,5.181900000000001,-3.0159132185185182,1.4450636453115957,1.6605604586914726,4.953261076265294,1,323,-2.356834901289411,9.339002080921212
691,Li2Si2O5,Li2Si2O5_Va_O3,5.181900000000001,-3.0159132185185182,2.11392758697035,3.5481317001341894,4.668858073937589,1,305,-2.356834901289411,11.14250617514239