,formula,full_name,band_gap,formation_energy,nn_ave_eleneg,o2p_center_from_vbm,vacancy_formation_energy,charge
1378,Sb2O3,Sb2O3_Va_O2,1.842700000000001,-1.751737502,2.659676891928514,3.6453132200419622,1.342556606925415,1
1379,Sb2PbO6,Sb2PbO6_Va_O1,1.8615999999999993,-1.900305225555556,2.791666666666667,3.264053158069724,1.9156482987407932,1
1380,SbAsO3,SbAsO3_Va_O1,3.257,-1.6997547515000004,2.6617779987008463,3.233004375837125,1.4549659834949389,1
1381,SbAsO3,SbAsO3_Va_O2,3.257,-1.6997547515000004,2.5758892938962794,3.120973725974879,1.58685780805539,1
1382,SbAsO3,SbAsO3_Va_O3,3.257,-1.6997547515000004,2.6776114751845843,3.238784307377601,1.3162035616637395,1
1383,SbO2,SbO2_Va_O1,1.9910000000000003,-1.8374915029166672,2.753462220133361,3.5862978926169973,1.5690984838048976,1
1384,SbO2,SbO2_Va_O2,1.9910000000000003,-1.8374915029166672,2.77530143852667,3.1481668558711764,1.8859998663330184,1
1385,SbO2,SbO2_Va_O3,1.9910000000000003,-1.8374915029166672,2.741856431286207,3.451624902571632,1.6467280350274212,1
1386,SbO2,SbO2_Va_O4,1.9910000000000003,-1.8374915029166672,2.75205610645959,3.0107401268739453,1.8431643181526496,1
1387,SiO2,SiO2_Va_O1,5.785699999999999,-3.267179193333333,2.67,2.858249381991186,4.9929877338973965,1
1388,Sn5O6,Sn5O6_Va_O1,1.415,-1.7621987818181832,2.4539480703817205,3.7688308015080825,2.204304264030954,1
1389,Sn5O6,Sn5O6_Va_O2,1.415,-1.7621987818181832,2.6357856065939984,3.6674763726434176,2.4316430334970587,1
1390,Sn5O6,Sn5O6_Va_O3,1.415,-1.7621987818181832,2.39053715812208,3.6820594344213857,1.806180667825936,1
1391,SnB4O7,SnB4O7_Va_O1,3.4541000000000004,-2.6146258118055554,2.4866818536794777,4.7280040897409,3.4478852254678145,1
1392,SnB4O7,SnB4O7_Va_O2,3.4541000000000004,-2.6146258118055554,2.3909703478304167,5.7315294788507956,2.8590367443788924,1
1393,SnB4O7,SnB4O7_Va_O3,3.4541000000000004,-2.6146258118055554,2.4263919365401607,4.843565196622258,3.1917039976913646,1
1394,SnB4O7,SnB4O7_Va_O4,3.4541000000000004,-2.6146258118055554,2.4685555713397687,4.650600397134114,3.428893126458652,1
1395,SnO2,SnO2_Va_O1,0.8614000000000002,-2.107481543333334,2.6999999999999997,2.689198165456612,2.6054480568309515,1
1396,Sr(AsO3)2,Sr(AsO3)2_Va_O1,3.4882999999999997,-2.233057519074074,2.605,2.4830881013655195,2.049322322578874,1
1397,Sr(BO2)2,Sr(BO2)2_Va_O1,4.9695,-3.1235381182142854,2.0343749131611357,2.1615546231003835,4.957801076133615,1
1398,Sr(BO2)2,Sr(BO2)2_Va_O2,4.9695,-3.1235381182142854,2.212165616451734,4.007286451289397,4.05026518981608,1
1399,Sr(BiO2)2,Sr(BiO2)2_Va_O1,2.4357,-2.1114339966666664,2.324548257724588,2.5410450963922,1.43297121371456,1
1400,Sr(BiO2)2,Sr(BiO2)2_Va_O2,2.4357,-2.1114339966666664,2.029107554714632,1.6113191240651374,1.7946459805882236,1
1401,Sr(BiO2)2,Sr(BiO2)2_Va_O3,2.4357,-2.1114339966666664,1.9921489585095735,1.479765478436082,2.481994769453447,1
1402,Sr(BiO2)2,Sr(BiO2)2_Va_O4,2.4357,-2.1114339966666664,2.4698862172393645,2.4288303816261245,1.6195944724626754,1
1403,Sr(SbO3)2,Sr(SbO3)2_Va_O1,2.9061999999999997,-2.3865939085185186,2.561666666666667,2.035490482256219,2.545143821518872,1
1404,Sr2CeO4,Sr2CeO4_Va_O1,2.8113,-3.4935232297619043,1.7461864139507632,1.5237580760513547,3.645454613363686,1
1405,Sr2CeO4,Sr2CeO4_Va_O2,2.8113,-3.4935232297619043,1.6160149065174287,1.3414551932417476,3.964269371699314,1
1406,Sr2GeO4,Sr2GeO4_Va_O1,3.5318999999999994,-2.9120691372619047,2.0119919774690533,1.7370118308883735,2.8244520145824445,1
1407,Sr2GeO4,Sr2GeO4_Va_O2,3.5318999999999994,-2.9120691372619047,1.801454504713544,1.8924632325639064,3.189535404149213,1
1408,Sr2GeO4,Sr2GeO4_Va_O3,3.5318999999999994,-2.9120691372619047,1.84635061077502,1.8548873432259887,3.2246144768220306,1
1409,Sr2GeO4,Sr2GeO4_Va_O4,3.5318999999999994,-2.9120691372619047,1.849858733985163,1.9675209191440468,3.0708767600944915,1
1410,Sr2Mg(BO3)2,Sr2Mg(BO3)2_Va_O1,4.664199999999999,-3.1881523910606067,1.969591113489994,2.7036102839646188,4.370187054003863,1
1411,Sr2Mg(BO3)2,Sr2Mg(BO3)2_Va_O2,4.664199999999999,-3.1881523910606067,1.8596019315711665,2.847850531163455,4.3720019899902365,1
1412,Sr2MgGe2O7,Sr2MgGe2O7_Va_O1,3.4777,-2.813852504861111,2.106276710195257,2.8964387302764214,2.360758797264041,1
1413,Sr2MgGe2O7,Sr2MgGe2O7_Va_O2,3.4777,-2.813852504861111,1.9984905015071912,1.5907947350894416,3.080403630183479,1
1414,Sr2MgGe2O7,Sr2MgGe2O7_Va_O3,3.4777,-2.813852504861111,2.019881563130175,1.400426284337247,2.7384787459547084,1
1415,Sr2MgSi2O7,Sr2MgSi2O7_Va_O1,4.5134,-3.401855501527778,1.9636617275158448,1.999936882939497,4.752275521619286,1
1416,Sr2MgSi2O7,Sr2MgSi2O7_Va_O2,4.5134,-3.401855501527778,1.9814207009422955,1.654688585253258,4.559021137870245,1
1417,Sr2MgSi2O7,Sr2MgSi2O7_Va_O3,4.5134,-3.401855501527778,2.0760255569431743,3.625323326053503,3.804751891966366,1
1418,Sr2PbO4,Sr2PbO4_Va_O1,1.4673000000000005,-2.466891851190476,1.8333932892028373,1.2909229458646654,2.5696332411711564,1
1419,Sr2Sb2O7,Sr2Sb2O7_Va_O1,1.5038,-2.5705959062121213,2.459055399322205,2.6840017410813624,2.2107606239462223,1
1420,Sr2Sb2O7,Sr2Sb2O7_Va_O2,1.5038,-2.5705959062121213,2.4560691981034015,2.865612737955333,2.379392851262539,1
1421,Sr2Sb2O7,Sr2Sb2O7_Va_O3,1.5038,-2.5705959062121213,2.013854602303889,1.7970500046544078,2.898909744080276,1
1422,Sr2SiO4,Sr2SiO4_Va_O1,4.5842,-3.422863758690476,1.8220442858075871,2.227516599873563,4.379611252012674,1
1423,Sr2SiO4,Sr2SiO4_Va_O2,4.5842,-3.422863758690476,1.8141372600035992,2.1815756368674126,4.405964106888632,1
1424,Sr2SiO4,Sr2SiO4_Va_O3,4.5842,-3.422863758690476,1.7630523901393695,2.2575793232741708,4.3864855376028355,1
1425,Sr2SiO4,Sr2SiO4_Va_O4,4.5842,-3.422863758690476,1.9822723634755313,2.003378364216619,4.286948926266634,1
1426,Sr2SnO4,Sr2SnO4_Va_O1,2.8567,-2.7861135097619045,1.6933973178721695,1.243837549095172,3.562827598372836,1
1427,Sr2SnO4,Sr2SnO4_Va_O2,2.8567,-2.7861135097619045,1.9692086761336776,2.139614610681748,2.812059506808933,1
1428,Sr2SnO4,Sr2SnO4_Va_O3,2.8567,-2.7861135097619045,1.983597351297278,1.9553647811038304,3.072968388316651,1
1429,Sr3(BO3)2,Sr3(BO3)2_Va_O1,4.5526,-3.2455647325757573,1.7979040067844871,2.360448655823145,4.503961406044599,1
1430,Sr3LiSbO6,Sr3LiSbO6_Va_O1,3.2918,-2.7778109675757583,1.6314690596991734,1.7724214107810354,3.2836212688143105,1
1431,Sr4As2O,Sr4As2O_Va_O1,1.0608,-1.7058687302380946,0.9630837637087896,3.072597349158513,3.493163433021462,1
1432,Sr4Bi2O,Sr4Bi2O_Va_O1,0.7934000000000001,-1.566404730238096,0.961071351480788,3.2131423832473818,4.086986734648816,1
1433,SrAl2(SiO4)2,SrAl2(SiO4)2_Va_O1,4.713,-3.4431226516666653,2.554218117175958,2.1900283165736223,5.08469079448636,1
1434,SrAl2(SiO4)2,SrAl2(SiO4)2_Va_O2,4.713,-3.4431226516666653,2.2101591313762072,2.7312975627248033,4.955411222303729,1
1435,SrAl4O7,SrAl4O7_Va_O1,3.8043,-3.464532970555555,2.0686637973355024,3.3886414129236364,4.462355171027214,1
1436,SrAl4O7,SrAl4O7_Va_O2,3.8043,-3.464532970555555,2.1085699467055883,2.2704895205259694,5.332717214659757,1
1437,SrAl4O7,SrAl4O7_Va_O3,3.8043,-3.464532970555555,1.937806108722431,2.331783423377374,5.232897097297659,1
1438,SrAl4O7,SrAl4O7_Va_O4,3.8043,-3.464532970555555,2.0585031471306294,2.344349601178077,4.889110569977683,1
1439,SrBe3O4,SrBe3O4_Va_O1,4.028600000000001,-3.1129027464583334,1.6533110910502504,2.5581943510658087,5.3322964149456,1
1440,SrBe3O4,SrBe3O4_Va_O2,4.028600000000001,-3.1129027464583334,1.5282350663416238,1.7171848755800505,4.845848771972592,1
1441,SrGa2B2O7,SrGa2B2O7_Va_O1,4.0775,-2.769393090833332,2.2230932647757946,4.065944714189673,3.6510753505709266,1
1442,SrGa2B2O7,SrGa2B2O7_Va_O2,4.0775,-2.769393090833332,2.0715789785851046,1.8267356589499184,3.563640916521716,1
1443,SrGa2B2O7,SrGa2B2O7_Va_O3,4.0775,-2.769393090833332,2.165847515895333,2.96473968899833,4.320860906549962,1
1444,SrGa2B2O7,SrGa2B2O7_Va_O4,4.0775,-2.769393090833332,2.4300912585032153,2.793130609574969,4.151232644404375,1
1445,SrGa4O7,SrGa4O7_Va_O1,2.5694999999999997,-2.5024807226388877,2.182301379140124,2.3339691379819514,3.1668980075662843,1
1446,SrGa4O7,SrGa4O7_Va_O2,2.5694999999999997,-2.5024807226388877,2.2095961790805183,2.3143721592175077,3.4426690155102726,1
1447,SrGa4O7,SrGa4O7_Va_O3,2.5694999999999997,-2.5024807226388877,2.044322650399085,2.234831930429887,3.555932644180799,1
1448,SrGa4O7,SrGa4O7_Va_O4,2.5694999999999997,-2.5024807226388877,2.1994684574528893,3.2233249975748306,2.782752362083424,1
1449,SrGePbO4,SrGePbO4_Va_O1,3.4394000000000005,-2.3839253838095233,2.228592646439861,2.31437235064919,2.3095158626795493,1
1450,SrGePbO4,SrGePbO4_Va_O2,3.4394000000000005,-2.3839253838095233,2.139793199731156,1.8399136821187208,2.754983433218575,1
1451,SrGePbO4,SrGePbO4_Va_O3,3.4394000000000005,-2.3839253838095233,2.286921758507515,2.1805350707014504,2.4137775205051577,1
1452,SrGePbO4,SrGePbO4_Va_O4,3.4394000000000005,-2.3839253838095233,2.197940068845184,2.36503167400965,2.459749751957898,1
1453,SrIn2O4,SrIn2O4_Va_O1,1.8881000000000008,-2.357273833095238,1.975956619531696,1.8071453573751548,3.086452686865049,1
1454,SrIn2O4,SrIn2O4_Va_O2,1.8881000000000008,-2.357273833095238,1.9731408891390827,1.5315136840051684,3.058677510296918,1
1455,SrIn2O4,SrIn2O4_Va_O3,1.8881000000000008,-2.357273833095238,2.1229562814465397,1.4984038828330914,2.97111262184127,1
1456,SrIn2O4,SrIn2O4_Va_O4,1.8881000000000008,-2.357273833095238,2.0210026484402803,1.630761717052397,2.983042367525746,1
1457,SrLi2SiO4,SrLi2SiO4_Va_O1,4.6882,-3.0221305220833337,1.482926365398387,1.8266348316816623,4.724432843112982,1
1458,SrLi2SiO4,SrLi2SiO4_Va_O2,4.6882,-3.0221305220833337,1.470910524122716,1.9269463357027872,4.745940758307882,1
1459,SrLiBO3,SrLiBO3_Va_O1,4.4504,-2.9997611794444454,1.4591439551030227,2.6759944811907257,4.487418081070439,1
1460,SrLiBO3,SrLiBO3_Va_O2,4.4504,-2.9997611794444454,1.695933600275719,2.5661350527155924,4.482875067340848,1
1461,SrLiBO3,SrLiBO3_Va_O3,4.4504,-2.9997611794444454,1.5105340412527664,2.644823179286754,4.47538138829722,1
1462,SrO,SrO_Va_O1,3.1607000000000003,-3.077090665833333,0.9500000000000002,0.908791266440336,4.766171724526229,1
1463,SrSn(BO3)2,SrSn(BO3)2_Va_O1,3.814599999999999,-2.8331703589999995,2.3137141771732708,2.7809334773488184,3.813141560096891,1
1464,SrSnO3,SrSnO3_Va_O1,1.9664,-2.637945564833333,2.116172940657988,1.882989803022736,2.9704008788516383,1
1465,SrSnO3,SrSnO3_Va_O2,1.9664,-2.637945564833333,2.1240512179988422,1.9014707125479116,2.958165338124002,1
1466,Tl2SnO3,Tl2SnO3_Va_O2,1.0258000000000005,-1.5003471177777783,2.269492997378121,3.0497117872618964,2.1812197588204363,1
1467,Tl2SnO3,Tl2SnO3_Va_O3,1.0258000000000005,-1.5003471177777783,2.1350711302464656,2.7594583476664427,1.6543793343947744,1
1468,Tl6Si2O7,Tl6Si2O7_Va_O1,1.2203999999999997,-1.905314270666666,2.1098998001661045,3.5557461656266147,3.128913642018788,1
1469,Tl6Si2O7,Tl6Si2O7_Va_O3,1.2203999999999997,-1.905314270666666,2.0677458606441865,3.5593257985599083,3.1228439744029854,1
1470,TlSbO3,TlSbO3_Va_O1,2.3711,-1.7144332416666668,2.5046166686920737,3.2383319675300344,2.140484381720456,1
1471,Al2Ge2O7,Al2Ge2O7_Va_O1,3.2978,-2.702367327272727,2.406341895839076,3.103427181710611,-0.0150423495906109,2
1472,Al2Ge2O7,Al2Ge2O7_Va_O2,3.2978,-2.702367327272727,2.3974576458626684,3.101687405729366,0.1390484039343733,2
1473,Al2Ge2O7,Al2Ge2O7_Va_O4,3.2978,-2.702367327272727,2.6131783167219456,2.043769290199058,1.0379799850548563,2
1474,Al2O3,Al2O3_Va_O1,6.039299999999999,-3.426551008000001,2.224895215865955,2.497321494687122,1.871706257271368,2
1475,Al2PbO4,Al2PbO4_Va_O1,3.8921,-2.89378359,2.273300437305284,2.391473835296565,1.5597349748155265,2
1476,Al2PbO4,Al2PbO4_Va_O2,3.8921,-2.89378359,2.2577006846753074,2.127479261236284,2.0772168677228207,2
1477,Al2PbO4,Al2PbO4_Va_O3,3.8921,-2.89378359,2.271189956610316,2.3477590408505455,1.6499347158008852,2
1478,Al4Bi2O9,Al4Bi2O9_Va_O1,2.6141999999999994,-2.857885394000002,2.3848563900027937,2.7629914986258335,0.0603303405355792,2
1479,Al4Bi2O9,Al4Bi2O9_Va_O2,2.6141999999999994,-2.857885394000002,2.2923045988216,2.525664865147771,1.4546189421473312,2
1480,Al4Bi2O9,Al4Bi2O9_Va_O3,2.6141999999999994,-2.857885394000002,2.3575196255115665,2.820929043431028,0.6232325467040618,2
1481,AlSbO4,AlSbO4_Va_O1,1.722599999999999,-2.5433669000000005,2.597103509660969,2.911445950223812,1.016020351947181,2
1482,AlSbO4,AlSbO4_Va_O2,1.722599999999999,-2.5433669000000005,2.672896490339031,3.6551000107041887,0.2390589483753902,2
1483,As2O3,As2O3_Va_O1,3.3312,-1.6290845505,2.745736482564582,3.6517666474416854,-0.9883017507957212,2
1484,As2O3,As2O3_Va_O2,3.3312,-1.6290845505,2.6515650881606163,3.61912449772006,-1.9412796043358855,2
1485,As2O3,As2O3_Va_O3,3.3312,-1.6290845505,2.6571443525075127,3.7018856453418607,-1.1966327609093488,2
1486,As2Pb3O8,As2Pb3O8_Va_O1,3.2885999999999997,-1.7352351134615382,2.6860742046445267,2.7630077039862124,-1.5591657833297032,2
1487,As2Pb3O8,As2Pb3O8_Va_O2,3.2885999999999997,-1.7352351134615382,2.7042365259736325,2.9586236071888488,-1.7971430520194496,2
1488,As2Pb3O8,As2Pb3O8_Va_O3,3.2885999999999997,-1.7352351134615382,2.7163595941283405,2.9774057862274157,-1.9653822343882072,2
1489,As2Pb3O8,As2Pb3O8_Va_O4,3.2885999999999997,-1.7352351134615382,2.768647000263188,2.651400752553627,-1.4715929956733558,2
1490,As2PbO4,As2PbO4_Va_O1,2.6284999999999994,-1.6492657325,2.5488496637752465,3.6606861531341286,-2.218591991685652,2
1491,As2PbO4,As2PbO4_Va_O2,2.6284999999999994,-1.6492657325,2.6503630288382656,3.697726588387933,-1.3736386880979254,2
1492,As2PbO4,As2PbO4_Va_O3,2.6284999999999994,-1.6492657325,2.5806582237199267,3.148174099169339,-0.5998686278464951,2
1493,As2PbO4,As2PbO4_Va_O4,2.6284999999999994,-1.6492657325,2.695552037046685,3.189222957911923,-1.0925976520758711,2
1494,As2PbO6,As2PbO6_Va_O1,2.1464,-1.7356450333333333,2.8350000000000004,3.7085103290461223,-1.9155182694596695,2
1495,B4PbO7,B4PbO7_Va_O1,4.158,-2.6473397413888877,2.4960870301019216,4.0909509783768545,-1.2973302691570017,2
1496,B4PbO7,B4PbO7_Va_O2,4.158,-2.6473397413888877,2.522918939325306,3.9908693958022026,-0.9115464124463676,2
1497,B4PbO7,B4PbO7_Va_O3,4.158,-2.6473397413888877,2.4117625853743987,5.0308915055261805,-2.730940490603915,2
1498,B4PbO7,B4PbO7_Va_O4,4.158,-2.6473397413888877,2.564729948085834,3.77814546703765,-0.6453876177255,2
1499,BAsO4,BAsO4_Va_O1,4.380000000000001,-2.132276382361111,2.7750470596344017,2.9118904601513993,-0.435205826739764,2
1500,Ba(AsO3)2,Ba(AsO3)2_Va_O1,2.8693999999999997,-2.1914320077777782,2.663833653764642,2.9647492210345696,-1.233834491086151,2
1501,Ba(AsO3)2,Ba(AsO3)2_Va_O2,2.8693999999999997,-2.1914320077777782,2.5819066683094225,3.220476701785266,-2.075177215742454,2
1502,Ba(SbO3)2,Ba(SbO3)2_Va_O1,2.9955999999999996,-2.376871872222223,2.5516666666666667,1.939533526774728,0.3355247654794314,2
1503,Ba2Bi2O5,Ba2Bi2O5_Va_O2,1.8273,-2.288426511111112,1.8107787739008248,2.100563563987341,0.2907639053279491,2
1504,Ba2Bi2O5,Ba2Bi2O5_Va_O3,1.8273,-2.288426511111112,2.059103547200948,1.833463230597384,-0.1097790104160503,2
1505,Ba2BiSbO6,Ba2BiSbO6_Va_O1,1.7198000000000002,-2.453007994999999,2.1200535501733504,2.8375809665302967,-0.1291299034019419,2
1506,Ba2BiSbO6,Ba2BiSbO6_Va_O2,1.7198000000000002,-2.453007994999999,2.143789464639996,2.80707284290209,-0.0954487457399104,2
1507,Ba2Ca(BO2)6,Ba2Ca(BO2)6_Va_O2,5.0027,-3.1139662421428564,2.0298335064690214,2.1827533569598763,2.9623950422884584,2
1508,Ba2Ca(BO3)2,Ba2Ca(BO3)2_Va_O1,4.1151,-3.2246886053030304,1.8882133171231443,2.433555992895412,2.077007832190588,2
1509,Ba2Ca(BO3)2,Ba2Ca(BO3)2_Va_O2,4.1151,-3.2246886053030304,1.78896752470246,2.556187340152093,1.881530495056854,2
1510,Ba2In2O5,Ba2In2O5_Va_O1,0.9603000000000002,-2.424057256666667,1.701871605116176,2.3408683614378414,1.4095066147646875,2
1511,Ba2In2O5,Ba2In2O5_Va_O2,0.9603000000000002,-2.424057256666667,1.815303427119624,1.7951956170136785,1.6080459285241928,2
1512,Ba2In2O5,Ba2In2O5_Va_O3,0.9603000000000002,-2.424057256666667,1.8163577677689784,1.5994690297226244,1.65671032180648,2
1513,Ba2InGaO5,Ba2InGaO5_Va_O1,1.6127999999999996,-2.5715327063888895,1.8548761391371331,1.6845958860514234,1.5129865350553957,2
1514,Ba2InGaO5,Ba2InGaO5_Va_O2,1.6127999999999996,-2.5715327063888895,1.8773389767661623,2.1868921772527714,1.4049211883965185,2
1515,Ba2InGaO5,Ba2InGaO5_Va_O3,1.6127999999999996,-2.5715327063888895,1.696971590061099,2.869617001973725,0.9731408306001144,2
1516,Ba2Mg(BO3)2,Ba2Mg(BO3)2_Va_O1,4.7117,-3.129790906212121,1.9080018823710925,2.837647917156953,1.8497964896029984,2
1517,Ba2MgGe2O7,Ba2MgGe2O7_Va_O1,3.5078,-2.7931089208333333,2.125871812472001,2.8016680828652487,0.7238817218457103,2
1518,Ba2MgGe2O7,Ba2MgGe2O7_Va_O2,3.5078,-2.7931089208333333,1.9643712694720457,1.4529151986460331,2.603317709968772,2
1519,Ba2MgGe2O7,Ba2MgGe2O7_Va_O3,3.5078,-2.7931089208333333,1.9869690959925717,1.6176245584051752,1.153164287274674,2
1520,Ba2MgSi2O7,Ba2MgSi2O7_Va_O1,4.5151,-3.3661644154166668,1.956148810444365,1.954080846225262,2.1108023676990877,2
1521,Ba2MgSi2O7,Ba2MgSi2O7_Va_O2,4.5151,-3.3661644154166668,1.924532861082514,1.6585435562997517,3.804362175056231,2
1522,Ba2MgSi2O7,Ba2MgSi2O7_Va_O3,4.5151,-3.3661644154166668,2.106248918227482,3.463631557818279,1.433671330629214,2
1523,Ba2PbO4,Ba2PbO4_Va_O1,1.3264000000000002,-2.3690410357142855,2.0753768308760643,1.748229577366927,-0.2583727280988024,2
1524,Ba2PbO4,Ba2PbO4_Va_O2,1.3264000000000002,-2.3690410357142855,1.7175282197657022,1.0928715865474945,0.3645292612183823,2
1525,Ba2SiO4,Ba2SiO4_Va_O2,4.7691,-3.3619786003571424,1.7501702673414408,2.0510531204351756,2.324037813919991,2
1526,Ba2SiO4,Ba2SiO4_Va_O3,4.7691,-3.3619786003571424,1.9140223485049568,1.8462819252227711,2.648694819059999,2
1527,Ba2SnO4,Ba2SnO4_Va_O1,2.6748,-2.7252458707142857,1.5846067414973888,1.2392503518767148,1.8050454193369556,2
1528,Ba2SnO4,Ba2SnO4_Va_O2,2.6748,-2.7252458707142857,2.0113911022161712,2.0533727474190098,0.8231386704460488,2
1529,Ba3(AsO4)2,Ba3(AsO4)2_Va_O1,4.0672999999999995,-2.691978154615385,2.3065525755656915,1.8664497423710813,0.6177095365547689,2
1530,Ba3(AsO4)2,Ba3(AsO4)2_Va_O2,4.0672999999999995,-2.691978154615385,2.1447896290114725,2.1236025483072396,-0.3533348416206163,2
1531,Ba3In2O6,Ba3In2O6_Va_O1,0.8739999999999997,-2.5032603363636365,1.5027520609857827,1.366161739848722,1.936059858395203,2
1532,Ba3In2O6,Ba3In2O6_Va_O2,0.8739999999999997,-2.5032603363636365,1.7745734882720745,1.703999515715251,0.9173435266688263,2
1533,Ba3MgSb2O9,Ba3MgSb2O9_Va_O1,2.8573,-2.6995449040000006,1.9848146738019936,1.9514056810206264,1.307873987870921,2
1534,Ba3MgSb2O9,Ba3MgSb2O9_Va_O2,2.8573,-2.6995449040000006,2.175411893660774,2.4586944447654595,0.0457811021316323,2
1535,Ba3NaBiO6,Ba3NaBiO6_Va_O1,1.8857,-2.437707516050157,1.5875090956657931,1.3942834469167544,1.312443156279493,2
1536,Ba3NaSbO6,Ba3NaSbO6_Va_O1,2.9642000000000004,-2.6506075655956116,1.60049408398836,1.6275298086607983,1.767963883778576,2
1537,Ba3Sn2O7,Ba3Sn2O7_Va_O1,1.8136,-2.668890004166667,2.0470090583045017,2.0293343475276915,0.9183590303185518,2
1538,Ba3Sn2O7,Ba3Sn2O7_Va_O2,1.8136,-2.668890004166667,1.5845935952348356,1.2995311952614723,1.8672103080387077,2
1539,Ba3Sn2O7,Ba3Sn2O7_Va_O3,1.8136,-2.668890004166667,2.126196563023328,1.854566969926319,0.8958231037631008,2
1540,Ba4InSbO8,Ba4InSbO8_Va_O1,2.4993,-2.680420198571428,1.9916364837862472,2.2239251111901437,0.630014373342179,2
1541,Ba4InSbO8,Ba4InSbO8_Va_O2,2.4993,-2.680420198571428,1.530581381110401,0.9270727729243128,2.054703029760384,2
1542,Ba4InSbO8,Ba4InSbO8_Va_O3,2.4993,-2.680420198571428,1.6498545884672875,1.6991889291753073,1.4322492765011083,2
1543,Ba4Li(SbO4)3,Ba4Li(SbO4)3_Va_O1,1.6418,-2.5572898346666664,2.166183804459811,2.58790649360424,-0.0743969359409248,2
1544,Ba4Li(SbO4)3,Ba4Li(SbO4)3_Va_O2,1.6418,-2.5572898346666664,1.915164915208084,1.7660262731657763,0.6950853717125494,2
1545,Ba4Na(SbO4)3,Ba4Na(SbO4)3_Va_O1,1.7089,-2.540505563827586,1.9024428441463583,1.808297026120643,0.8845503698244732,2
1546,Ba4Na(SbO4)3,Ba4Na(SbO4)3_Va_O2,1.7089,-2.540505563827586,2.1732145330654524,2.4275878382202305,-0.0490413324266842,2