,formula,full_name,band_gap,formation_energy,nn_ave_eleneg,o2p_center_from_vbm,vacancy_formation_energy,charge
519,Na4GeO4,Na4GeO4_Va_O1,2.8884999999999996,-2.0175675590229885,1.2264580719633678,1.4259876648008478,4.8971426500001005,0
520,Na4GeO4,Na4GeO4_Va_O2,2.8884999999999996,-2.0175675590229885,1.2117565074226204,1.4357606009606547,5.011667060000159,0
521,Na4GeO4,Na4GeO4_Va_O3,2.8884999999999996,-2.0175675590229885,1.2368473420196695,1.44457099810889,4.922840820000042,0
522,Na4GeO4,Na4GeO4_Va_O4,2.8884999999999996,-2.0175675590229885,1.3449276547576416,1.4199232606298169,4.630482240000115,0
523,Na4PbO4,Na4PbO4_Va_O1,1.2815,-1.610200159578544,1.2323834548105834,1.066186482334869,2.74896658000001,0
524,Na4PbO4,Na4PbO4_Va_O2,1.2815,-1.610200159578544,1.2246366108679725,1.0451122066586036,2.725313049999963,0
525,Na4PbO4,Na4PbO4_Va_O3,1.2815,-1.610200159578544,1.214450048156124,1.0536682905084844,2.75807702999999,0
526,Na4PbO4,Na4PbO4_Va_O4,1.2815,-1.610200159578544,1.4285521221202382,1.1685431877800525,2.288921259999947,0
527,Na4SiO4,Na4SiO4_Va_O1,3.3997,-2.3901058923563228,1.2509857988408335,1.7846678399703702,6.588761620000136,0
528,Na4SiO4,Na4SiO4_Va_O2,3.3997,-2.3901058923563228,1.2277981386290096,1.806239720956594,6.670062450000055,0
529,Na4SiO4,Na4SiO4_Va_O3,3.3997,-2.3901058923563228,1.2592779405693129,1.8281771317708524,6.619674010000049,0
530,Na4SiO4,Na4SiO4_Va_O4,3.3997,-2.3901058923563228,1.3437535379992207,1.7779377187172276,6.424721190000023,0
531,Na4SnO3,Na4SnO3_Va_O1,1.8379000000000003,-1.657075410775862,1.1969717726681846,2.239801726413944,5.2327277900000215,0
532,Na4SnO3,Na4SnO3_Va_O2,1.8379000000000003,-1.657075410775862,1.177413117691618,2.0246583033282284,5.14473260000012,0
533,Na4SnO3,Na4SnO3_Va_O3,1.8379000000000003,-1.657075410775862,1.1663906719867578,1.9981502611153077,5.0984747999999716,0
534,Na4SnO4,Na4SnO4_Va_O1,2.1317,-1.8676039212452116,1.1892804405561148,1.1507983414686145,4.079619819999957,0
535,Na4SnO4,Na4SnO4_Va_O2,2.1317,-1.8676039212452116,1.165292343016625,1.154792715987451,4.134188939999953,0
536,Na4SnO4,Na4SnO4_Va_O3,2.1317,-1.8676039212452116,1.1727474765695347,1.1440239344205128,4.070681170000066,0
537,Na4SnO4,Na4SnO4_Va_O4,2.1317,-1.8676039212452116,1.3216859107307752,1.1784431761226957,3.656326720000047,0
538,Na6PbO5,Na6PbO5_Va_O1,1.1032,-1.5700874682758617,1.349658804960484,1.508565196276811,3.696000540000009,0
539,Na6PbO5,Na6PbO5_Va_O2,1.1032,-1.5700874682758617,1.2844735360975492,1.280438359370244,3.795047200000008,0
540,NaAlO2,NaAlO2_Va_O1,3.9174,-2.933970703512931,1.5016528031852792,1.7853031428518185,6.998969500000053,0
541,NaAlO2,NaAlO2_Va_O2,3.9174,-2.933970703512931,1.530096251693467,1.726511145169398,6.918318899999926,0
542,NaBO2,NaBO2_Va_O1,4.1874,-2.612621758929598,1.800791350867429,4.794958586711842,6.102864149999968,0
543,NaBO2,NaBO2_Va_O2,4.1874,-2.612621758929598,1.507964346670368,2.448975321494773,7.027633270000033,0
544,NaBe4SbO7,NaBe4SbO7_Va_O1,3.5778,-2.711356884350132,1.941668185879593,2.7014986752753343,5.391052350000232,0
545,NaBe4SbO7,NaBe4SbO7_Va_O2,3.5778,-2.711356884350132,1.7424837757829752,3.0993121486146733,8.063918420000286,0
546,NaBe4SbO7,NaBe4SbO7_Va_O3,3.5778,-2.711356884350132,1.9372572126615384,2.725431937952296,5.474758600000209,0
547,NaBiO2,NaBiO2_Va_O1,0.8683999999999994,-1.7202619228879303,1.6366443656571326,2.7247514926830427,4.0020247000000015,0
548,NaBiO3,NaBiO3_Va_O1,1.226,-1.584092498310345,2.1500412786154803,1.5134699260394022,2.1512824200000384,0
549,NaCaAsO4,NaCaAsO4_Va_O1,3.6764,-2.503265028793104,1.8405279615041128,1.9926960198065855,3.669831690000033,0
550,NaCaAsO4,NaCaAsO4_Va_O2,3.6764,-2.503265028793104,1.8789918512128596,2.126140341009416,3.481432159999949,0
551,NaCaAsO4,NaCaAsO4_Va_O3,3.6764,-2.503265028793104,1.9528537329280056,2.0447384729771314,3.8879402999999777,0
552,NaGaO2,NaGaO2_Va_O1,2.9321,-2.2214824766379304,1.5959280894452252,1.7539251355139929,4.927023199999789,0
553,NaGaO2,NaGaO2_Va_O2,2.9321,-2.2214824766379304,1.5658864972153843,1.7928204070167568,5.038493759999833,0
554,NaGeSbO5,NaGeSbO5_Va_O1,2.1107,-2.0808606433189665,2.5932904205604874,2.2361883546979664,3.935986659999921,0
555,NaGeSbO5,NaGeSbO5_Va_O2,2.1107,-2.0808606433189665,2.2647957572540687,2.646514442124263,4.077095010000116,0
556,NaGeSbO5,NaGeSbO5_Va_O3,2.1107,-2.0808606433189665,2.3735590324656877,2.499235729266061,4.121645650000014,0
557,NaIn(GeO3)2,NaIn(GeO3)2_Va_O1,2.2328,-2.127569738655173,2.3141272338567744,1.7247028897549397,3.7977860399999575,0
558,NaIn(GeO3)2,NaIn(GeO3)2_Va_O2,2.2328,-2.127569738655173,2.2469402252806696,2.4611478309729655,4.373651269999991,0
559,NaIn(GeO3)2,NaIn(GeO3)2_Va_O3,2.2328,-2.127569738655173,2.2472316493621367,2.783870360184764,4.102513089999954,0
560,NaIn(SiO3)2,NaIn(SiO3)2_Va_O1,3.5292,-2.8000169371551724,2.279725300825057,1.9256079806937965,5.579766739999977,0
561,NaIn(SiO3)2,NaIn(SiO3)2_Va_O2,3.5292,-2.8000169371551724,2.213274541877889,3.4063354472321494,6.589835279999997,0
562,NaIn(SiO3)2,NaIn(SiO3)2_Va_O3,3.5292,-2.8000169371551724,2.2131725069134935,2.701722385377934,6.006346289999906,0
563,NaInO2,NaInO2_Va_O1,2.0346,-1.9855354266379308,1.4896520697887778,1.4689325051693,4.776153229999986,0
564,NaLi2AsO4,NaLi2AsO4_Va_O1,4.0055,-2.203138256027299,1.4650899255378942,1.9616465792613036,3.9251148600000167,0
565,NaLi2AsO4,NaLi2AsO4_Va_O2,4.0055,-2.203138256027299,1.4950303350020404,1.9112830083684105,3.6082889699999985,0
566,NaLi2AsO4,NaLi2AsO4_Va_O3,4.0055,-2.203138256027299,1.498049076386039,1.959845786892404,3.875257049999968,0
567,NaSbO3,NaSbO3_Va_O1,2.8378,-2.0606511693103453,2.18834731319333,1.829437473272837,4.3775729500001805,0
568,NaSr3BiO6,NaSr3BiO6_Va_O1,1.8777,-2.502110717868339,1.614436383936734,1.4659722373699116,3.544827170000028,0
569,NaSr3SbO6,NaSr3SbO6_Va_O1,3.0766,-2.73731709877743,1.625800969881972,1.7209207333197578,5.092019360000004,0
570,NaSrBO3,NaSrBO3_Va_O1,3.9354,-2.8850838603975086,1.542672078844625,2.5679524233447135,6.929889349999835,0
571,NaSrBO3,NaSrBO3_Va_O2,3.9354,-2.8850838603975086,1.530719698052853,2.576553371972847,6.9462073200001075,0
572,NaSrBO3,NaSrBO3_Va_O3,3.9354,-2.8850838603975086,1.586647986950031,2.5729998900650113,6.986209369999765,0
573,Pb3O4,Pb3O4_Va_O1,1.0928999999999998,-1.446981154285714,2.7125491166580247,2.4452465098536926,2.951714230000002,0
574,Pb3O4,Pb3O4_Va_O2,1.0928999999999998,-1.446981154285714,2.7179617029831618,2.526718446962329,3.009804059999974,0
575,Rb2Al2Sb2O7,Rb2Al2Sb2O7_Va_O1,3.4936000000000003,-2.5277962692307687,1.9017394217521548,2.2332136127623827,5.4706412400002,0
576,Rb2Al2Sb2O7,Rb2Al2Sb2O7_Va_O2,3.4936000000000003,-2.5277962692307687,2.0422653601682996,1.624469458701181,6.198865110000165,0
577,Rb2Be2O3,Rb2Be2O3_Va_O1,2.4254,-2.377723397857143,1.3186439947914728,2.264499680717455,6.707784469999874,0
578,Rb2Be2O3,Rb2Be2O3_Va_O2,2.4254,-2.377723397857143,1.3098038993263637,2.3666260707242195,7.1476963799999655,0
579,Rb2CeO3,Rb2CeO3_Va_O1,2.7647000000000004,-2.7078352658333342,1.3460816284187862,1.2315831392512286,4.575105469999821,0
580,Rb2CeO3,Rb2CeO3_Va_O2,2.7647000000000004,-2.7078352658333342,1.3443625233666276,1.209487160859462,4.531084509999696,0
581,Rb2Li2GeO4,Rb2Li2GeO4_Va_O1,3.4064,-2.1233419424074076,1.2371664473941908,1.6308418109381742,4.857719340000026,0
582,Rb2Li2GeO4,Rb2Li2GeO4_Va_O2,3.4064,-2.1233419424074076,1.2326544278601768,1.7740393690188097,5.181143200000074,0
583,Rb2Li2GeO4,Rb2Li2GeO4_Va_O3,3.4064,-2.1233419424074076,1.3512413571117623,1.3291855247859476,4.236460040000006,0
584,Rb2Li2GeO4,Rb2Li2GeO4_Va_O4,3.4064,-2.1233419424074076,1.2399846243087431,1.854573897690014,5.057698799999921,0
585,Rb2Li2SiO4,Rb2Li2SiO4_Va_O1,4.0457,-2.497921448518519,1.2541720531666507,2.0069932329953044,6.693096860000091,0
586,Rb2Li2SiO4,Rb2Li2SiO4_Va_O2,4.0457,-2.497921448518519,1.2467161043174848,2.1810237774861636,6.889898900000057,0
587,Rb2Li2SiO4,Rb2Li2SiO4_Va_O3,4.0457,-2.497921448518519,1.37289685755873,1.6015274357297469,6.3491138000000635,0
588,Rb2Li2SiO4,Rb2Li2SiO4_Va_O4,4.0457,-2.497921448518519,1.2682150732828297,2.2270934773805617,6.848308989999973,0
589,Rb2Li3GaO4,Rb2Li3GaO4_Va_O1,3.5932000000000004,-2.0277087522499997,1.1360217436941256,1.412355801316802,5.54529603000004,0
590,Rb2LiAsO4,Rb2LiAsO4_Va_O1,3.6926,-2.109026203541667,1.5404627506685689,2.032133525623072,3.687425139999968,0
591,Rb2LiAsO4,Rb2LiAsO4_Va_O2,3.6926,-2.109026203541667,1.4624443289524658,1.9392237533867864,3.808712850000015,0
592,Rb2LiAsO4,Rb2LiAsO4_Va_O3,3.6926,-2.109026203541667,1.4152021281468703,2.003576523478788,3.6789111299999697,0
593,Rb2MgO2,Rb2MgO2_Va_O1,2.5014000000000003,-1.9070924115,1.0564066381675623,1.1061368225352242,6.16237320999995,0
594,Rb2O,Rb2O_Va_O1,1.4732,-1.133168373333333,0.82,0.3969127188451622,4.461725070000009,0
595,Rb2Pb2O3,Rb2Pb2O3_Va_O1,1.6844,-1.539362617142857,1.6705273842002886,2.3156563089413096,4.134989309999932,0
596,Rb2PbO2,Rb2PbO2_Va_O2,1.8371,-1.499867704999999,1.5562767872176382,1.9460636008394605,4.12975662999987,0
597,Rb2PbO2,Rb2PbO2_Va_O3,1.8371,-1.499867704999999,1.2416992022539106,1.2687788231105346,4.4865454799997995,0
598,Rb2PbO2,Rb2PbO2_Va_O4,1.8371,-1.499867704999999,1.65477550972542,1.8747073643696075,4.0796532799998975,0
599,Rb2PbO3,Rb2PbO3_Va_O2,1.3140999999999998,-1.5558054725000003,1.512566128673175,0.824836430678038,1.954460719999938,0
600,Rb2Si3SnO9,Rb2Si3SnO9_Va_O1,3.9782,-2.8654779920000006,2.265288420966906,2.3971505888352076,5.664814660000056,0
601,Rb2Si3SnO9,Rb2Si3SnO9_Va_O2,3.9782,-2.8654779920000006,2.101580600842526,3.5178546404919366,6.3304400400001075,0
602,Rb2Sn2O3,Rb2Sn2O3_Va_O1,0.9453999999999998,-1.7204352542857149,1.6478351694372932,3.5201396409054064,4.735854819999995,0
603,Rb2SnO2,Rb2SnO2_Va_O1,2.239,-1.6441546475000002,1.6389673388076338,2.815253649531358,4.6254747100000575,0
604,Rb2SnO2,Rb2SnO2_Va_O2,2.239,-1.6441546475000002,1.2059172084529577,1.8505156376234224,4.986553820000049,0
605,Rb2SnO3,Rb2SnO3_Va_O1,2.2715,-1.923212555,1.6808750108243984,1.95237329003421,4.523463749999687,0
606,Rb2SnO3,Rb2SnO3_Va_O2,2.2715,-1.923212555,1.4050702572516909,0.9654521921931688,3.550404869999861,0
607,Rb3AlO3,Rb3AlO3_Va_O1,2.8213,-2.192958231785714,1.1030633211895935,1.0623130519345072,6.206774539999978,0
608,Rb3AlO3,Rb3AlO3_Va_O2,2.8213,-2.192958231785714,1.3077788944130129,2.0319298353912956,6.547884360000021,0
609,Rb3BiO3,Rb3BiO3_Va_O1,3.1835,-1.6211958614285713,1.2368454618170004,1.193738065945551,4.205223209999881,0
610,Rb3GaO3,Rb3GaO3_Va_O1,2.5813,-1.829943027142856,1.3586028396255856,1.9188954109317824,5.150004670000053,0
611,Rb3GaO3,Rb3GaO3_Va_O2,2.5813,-1.829943027142856,1.1253175271645046,1.1116290921680183,4.965271909999965,0
612,Rb3InO3,Rb3InO3_Va_O1,1.9467,-1.6420714696428569,1.067479041082411,0.7459525592720849,3.727990780000036,0
613,Rb3InO3,Rb3InO3_Va_O2,1.9467,-1.6420714696428569,1.275996888690673,1.512729800600991,4.136471649999985,0
614,Rb3InO3,Rb3InO3_Va_O3,1.9467,-1.6420714696428569,1.0834265971813364,0.6967453819358194,3.61898856,0
615,Rb3SbO3,Rb3SbO3_Va_O1,3.1791,-1.780475274285715,1.278245702464094,1.712103368442821,4.6617412500001,0
616,Rb3TlO3,Rb3TlO3_Va_O1,1.5343999999999998,-1.3742784501190477,1.0405368336763197,0.8603491913254215,2.52481715999995,0
617,Rb3TlO3,Rb3TlO3_Va_O2,1.5343999999999998,-1.3742784501190477,1.2046730369938634,1.4109851689396835,2.958439589999964,0
618,Rb3TlO3,Rb3TlO3_Va_O3,1.5343999999999998,-1.3742784501190477,1.0201421598319538,0.931669723709982,2.607465979999981,0
619,Rb4PbO4,Rb4PbO4_Va_O1,1.6033,-1.527302656666666,1.3070720157688454,0.9979510856281404,2.4869681399999397,0
620,Rb4PbO4,Rb4PbO4_Va_O2,1.6033,-1.527302656666666,1.22157927460758,0.8826131327184692,2.9218927599998867,0
621,Rb4PbO4,Rb4PbO4_Va_O3,1.6033,-1.527302656666666,1.2601228870887389,0.95673797522315,2.7393282399999723,0
622,Rb4PbO4,Rb4PbO4_Va_O4,1.6033,-1.527302656666666,1.2392494475657276,0.9434678655128452,2.6245563899998476,0
623,Rb4SnO3,Rb4SnO3_Va_O1,1.7874,-1.5217606543749995,1.1747528504536422,1.894352379655548,4.902956429999799,0
624,Rb4SnO3,Rb4SnO3_Va_O2,1.7874,-1.5217606543749995,1.1883874647645265,1.9674810029997856,4.968543149999855,0
625,Rb4SnO3,Rb4SnO3_Va_O3,1.7874,-1.5217606543749995,1.177163951099402,1.86705331015707,4.880791679999797,0
626,Rb4SnO4,Rb4SnO4_Va_O1,2.2470999999999997,-1.7707643350000004,1.2535575408013142,1.126526894597595,3.781155909999947,0
627,Rb4SnO4,Rb4SnO4_Va_O2,2.2470999999999997,-1.7707643350000004,1.177260316119254,1.0449651115135987,4.168812089999969,0
628,Rb4SnO4,Rb4SnO4_Va_O3,2.2470999999999997,-1.7707643350000004,1.2171300794874034,1.109757744027597,3.964887650000159,0
629,Rb4SnO4,Rb4SnO4_Va_O4,2.2470999999999997,-1.7707643350000004,1.1979440958840029,1.0817809391754487,3.8824074400000743,0
630,Rb6Si2O7,Rb6Si2O7_Va_O1,3.3157999999999994,-2.4265757626666664,1.2846846109124377,1.886047280338284,6.435236069999869,0
631,Rb6Si2O7,Rb6Si2O7_Va_O2,3.3157999999999994,-2.4265757626666664,1.8430506074296524,3.551416424212495,6.5705837800000015,0
632,Rb6Si2O7,Rb6Si2O7_Va_O3,3.3157999999999994,-2.4265757626666664,1.3205817195285865,1.855323133603911,6.380475519999786,0
633,Rb6Si2O7,Rb6Si2O7_Va_O4,3.3157999999999994,-2.4265757626666664,1.3013686485182614,1.8455291388056272,6.356189489999801,0
634,RbAlSiO4,RbAlSiO4_Va_O1,4.4681999999999995,-3.1852192524999996,1.9923173255176243,2.52763315215416,6.260382169999852,0
635,RbAlSiO4,RbAlSiO4_Va_O2,4.4681999999999995,-3.1852192524999996,1.8994371639343235,2.532842213623673,6.442584979999888,0
636,RbAlSiO4,RbAlSiO4_Va_O3,4.4681999999999995,-3.1852192524999996,1.8957617866806304,2.547982180784578,6.4506139899998605,0
637,RbAlSiO4,RbAlSiO4_Va_O4,4.4681999999999995,-3.1852192524999996,2.1081262881015697,2.4123340604840338,6.194789860000023,0
638,RbAsO2,RbAsO2_Va_O1,3.8234,-1.8659498662499991,2.047080228348106,3.189099695784902,4.486262959999872,0
639,RbAsO2,RbAsO2_Va_O2,3.8234,-1.8659498662499991,1.6025355494432765,2.0620363302223153,4.542627859999934,0
640,RbBO2,RbBO2_Va_O1,4.0156,-2.622254900833333,1.3946434677834016,2.1753724478080345,7.063651139999942,0
641,RbBO2,RbBO2_Va_O2,4.0156,-2.622254900833333,1.8228153017123696,4.178610917163613,6.264447139999911,0
642,RbBiO2,RbBiO2_Va_O1,1.9585999999999997,-1.694015584374999,1.730540124449983,2.079345563157339,4.020724320000008,0
643,RbMgBO3,RbMgBO3_Va_O1,4.4726,-2.766051768611111,1.6446800218680575,2.2991347128620023,6.844739960000092,0
644,RbNa2BO3,RbNa2BO3_Va_O1,3.17,-2.251398343538588,1.2815366863860267,2.6912552791651994,6.895549830000059,0
645,RbNa2BO3,RbNa2BO3_Va_O2,3.17,-2.251398343538588,1.3236821489665178,2.5993584714116977,6.901736440000045,0
646,RbSbO2,RbSbO2_Va_O1,2.1201,-1.864373579375,1.8388526718097649,2.848037453621166,4.43810836000001,0
647,RbTlO,RbTlO_Va_O1,1.1948,-1.1706777986111103,1.324218627261024,1.9929550085561316,3.7769892399999865,0
648,Sb2O3,Sb2O3_Va_O1,1.842700000000001,-1.751737502,2.544741242141955,3.479270991356791,4.168888170000011,0
649,Sb2O3,Sb2O3_Va_O2,1.842700000000001,-1.751737502,2.659676891928514,3.6453132200419622,4.23347437999997,0
650,Sb2PbO6,Sb2PbO6_Va_O1,1.8615999999999993,-1.900305225555556,2.791666666666667,3.264053158069724,4.266536340000025,0
651,SbAsO3,SbAsO3_Va_O1,3.257,-1.6997547515000004,2.6617779987008463,3.233004375837125,4.052682010000021,0
652,SbAsO3,SbAsO3_Va_O2,3.257,-1.6997547515000004,2.5758892938962794,3.120973725974879,4.062129160000049,0
653,SbAsO3,SbAsO3_Va_O3,3.257,-1.6997547515000004,2.6776114751845843,3.238784307377601,3.8405594299999937,0
654,SbO2,SbO2_Va_O1,1.9910000000000003,-1.8374915029166672,2.753462220133361,3.5862978926169973,4.408735470000019,0
655,SbO2,SbO2_Va_O2,1.9910000000000003,-1.8374915029166672,2.77530143852667,3.1481668558711764,4.01743338999996,0
656,SbO2,SbO2_Va_O3,1.9910000000000003,-1.8374915029166672,2.741856431286207,3.451624902571632,4.160002620000009,0
657,SbO2,SbO2_Va_O4,1.9910000000000003,-1.8374915029166672,2.75205610645959,3.0107401268739453,3.761671020000003,0
658,SiO2,SiO2_Va_O1,5.785699999999999,-3.267179193333333,2.67,2.858249381991186,5.84099236999999,0
659,Sn5O6,Sn5O6_Va_O1,1.415,-1.7621987818181832,2.4539480703817205,3.7688308015080825,4.767490980000057,0
660,Sn5O6,Sn5O6_Va_O2,1.415,-1.7621987818181832,2.6357856065939984,3.6674763726434176,4.971552149999988,0
661,Sn5O6,Sn5O6_Va_O3,1.415,-1.7621987818181832,2.39053715812208,3.6820594344213857,4.4522977500000795,0
662,SnB4O7,SnB4O7_Va_O1,3.4541000000000004,-2.6146258118055554,2.4866818536794777,4.7280040897409,7.306844840000062,0
663,SnB4O7,SnB4O7_Va_O2,3.4541000000000004,-2.6146258118055554,2.3909703478304167,5.7315294788507956,7.681961060000171,0
664,SnB4O7,SnB4O7_Va_O3,3.4541000000000004,-2.6146258118055554,2.4263919365401607,4.843565196622258,6.986340179999965,0
665,SnB4O7,SnB4O7_Va_O4,3.4541000000000004,-2.6146258118055554,2.4685555713397687,4.650600397134114,6.595873240000069,0
666,SnO2,SnO2_Va_O1,0.8614000000000002,-2.107481543333334,2.6999999999999997,2.689198165456612,4.78985756999999,0
667,Sr(AsO3)2,Sr(AsO3)2_Va_O1,3.4882999999999997,-2.233057519074074,2.605,2.4830881013655195,4.617377530000008,0
668,Sr(BO2)2,Sr(BO2)2_Va_O1,4.9695,-3.1235381182142854,2.0343749131611357,2.1615546231003835,7.1470932200001105,0
669,Sr(BO2)2,Sr(BO2)2_Va_O2,4.9695,-3.1235381182142854,2.212165616451734,4.007286451289397,6.446952359999964,0
670,Sr(BiO2)2,Sr(BiO2)2_Va_O1,2.4357,-2.1114339966666664,2.324548257724588,2.5410450963922,3.693859309999775,0
671,Sr(BiO2)2,Sr(BiO2)2_Va_O2,2.4357,-2.1114339966666664,2.029107554714632,1.6113191240651374,3.728578889999776,0
672,Sr(BiO2)2,Sr(BiO2)2_Va_O3,2.4357,-2.1114339966666664,1.9921489585095735,1.479765478436082,4.22955231000004,0
673,Sr(BiO2)2,Sr(BiO2)2_Va_O4,2.4357,-2.1114339966666664,2.4698862172393645,2.4288303816261245,4.060117590000013,0
674,Sr(SbO3)2,Sr(SbO3)2_Va_O1,2.9061999999999997,-2.3865939085185186,2.561666666666667,2.035490482256219,4.463854070000034,0
675,Sr2CeO4,Sr2CeO4_Va_O2,2.8113,-3.4935232297619043,1.6160149065174287,1.3414551932417476,5.72537125999987,0
676,Sr2GeO4,Sr2GeO4_Va_O1,3.5318999999999994,-2.9120691372619047,2.0119919774690533,1.7370118308883735,4.227263049999928,0
677,Sr2GeO4,Sr2GeO4_Va_O2,3.5318999999999994,-2.9120691372619047,1.801454504713544,1.8924632325639064,4.824244809999991,0
678,Sr2GeO4,Sr2GeO4_Va_O3,3.5318999999999994,-2.9120691372619047,1.84635061077502,1.8548873432259887,4.750340049999986,0
679,Sr2GeO4,Sr2GeO4_Va_O4,3.5318999999999994,-2.9120691372619047,1.849858733985163,1.9675209191440468,4.6458462900000175,0
680,Sr2InSbO6,Sr2InSbO6_Va_O1,1.9202999999999997,-2.583106877333333,2.103119176484185,1.8687805300230036,4.613222149999965,0
681,Sr2InSbO6,Sr2InSbO6_Va_O2,1.9202999999999997,-2.583106877333333,2.103499655842161,1.8901487812913813,4.611175819999923,0
682,Sr2InSbO6,Sr2InSbO6_Va_O3,1.9202999999999997,-2.583106877333333,2.111956822324779,1.909329567993505,4.633941049999928,0
683,Sr2Mg(BO3)2,Sr2Mg(BO3)2_Va_O1,4.664199999999999,-3.1881523910606067,1.969591113489994,2.7036102839646188,7.192498629999941,0
684,Sr2Mg(BO3)2,Sr2Mg(BO3)2_Va_O2,4.664199999999999,-3.1881523910606067,1.8596019315711665,2.847850531163455,7.150755319999812,0
685,Sr2MgGe2O7,Sr2MgGe2O7_Va_O1,3.4777,-2.813852504861111,2.106276710195257,2.8964387302764214,4.059469240000121,0
686,Sr2MgGe2O7,Sr2MgGe2O7_Va_O2,3.4777,-2.813852504861111,1.9984905015071912,1.5907947350894416,4.550543559999946,0
687,Sr2MgGe2O7,Sr2MgGe2O7_Va_O3,3.4777,-2.813852504861111,2.019881563130175,1.400426284337247,3.986390700000024,0
688,Sr2MgSi2O7,Sr2MgSi2O7_Va_O1,4.5134,-3.401855501527778,1.9636617275158448,1.999936882939497,6.543085839999899,0
689,Sr2MgSi2O7,Sr2MgSi2O7_Va_O2,4.5134,-3.401855501527778,1.9814207009422955,1.654688585253258,6.3101388100002485,0
690,Sr2MgSi2O7,Sr2MgSi2O7_Va_O3,4.5134,-3.401855501527778,2.0760255569431743,3.625323326053503,6.174566909999962,0
691,Sr2PbO4,Sr2PbO4_Va_O1,1.4673000000000005,-2.466891851190476,1.8333932892028373,1.2909229458646654,3.5028222400000093,0