,formula,full_name,band_gap,formation_energy,nn_ave_eleneg,o2p_center_from_vbm,vacancy_formation_energy,charge,vacancy_index,vr_max,Eb_sum
298,Ge3Sb2O9,Ge3Sb2O9_Va_O1,2.7623,-1.9797399339285713,2.691501831277756,3.277237424301235,3.5858319699999672,0,87,-1.2369755737418262,7.935203314569789
299,Ge3Sb2O9,Ge3Sb2O9_Va_O2,2.7623,-1.9797399339285713,2.5817378781486573,3.701705733648085,3.730634949999976,0,111,-1.2369755737418262,7.513893265549086
300,GeO2,GeO2_Va_O1,3.0522,-2.077037438333334,2.725,2.262441673488334,3.65275514999997,0,71,-1.502819088333178,7.521512384777801
301,GePbO3,GePbO3_Va_O1,2.5365,-1.9292281530000004,2.5859348115368204,3.5288020432128744,4.000361900000039,0,167,-1.1369603723458594,7.979624253963001
302,GePbO3,GePbO3_Va_O2,2.5365,-1.9292281530000004,2.6186738845561237,2.8269104136288705,3.7600193300001,0,161,-1.1369603723458594,6.711699889701398
303,GePbO3,GePbO3_Va_O3,2.5365,-1.9292281530000004,2.6719584035434787,2.8677407307027503,3.857529450000024,0,179,-1.1369603723458594,5.984836339852359
304,InBO3,InBO3_Va_O1,2.7299,-2.460089823833333,2.4200000000000004,2.938655761671348,6.210019870000119,0,269,-1.5993795332042406,7.705504722241627
305,K2Al2Sb2O7,K2Al2Sb2O7_Va_O1,3.4046000000000003,-2.5361834362307683,1.897459853782812,2.259956638137561,5.413325590000008,0,233,-1.2369755737418262,6.959494803309463
306,K2Al2Sb2O7,K2Al2Sb2O7_Va_O2,3.4046000000000003,-2.5361834362307683,2.039349228814054,1.6530687004716047,6.13320810000017,0,197,-1.2369755737418262,5.3245677543906975
307,K2BeO2,K2BeO2_Va_O1,2.9366000000000003,-2.1087224357000003,1.0788354602723205,1.1404806477997904,6.505276430000217,0,455,-1.8820736227458112,5.467750461416447
308,K2BeO2,K2BeO2_Va_O2,2.9366000000000003,-2.1087224357000003,1.1792865484720894,2.165033297398809,6.824801780000039,0,479,-1.8820736227458112,8.146884709506132
309,K2LiBO3,K2LiBO3_Va_O1,3.6622,-2.3490071212142856,1.2714838951610274,2.5262098679396505,7.01124975999995,0,239,-1.8820736227458112,9.157919813549414
310,K2LiBO3,K2LiBO3_Va_O2,3.6622,-2.3490071212142856,1.2992833897480602,2.2797618753094913,6.8524810499999464,0,335,-1.8820736227458112,7.7264465307313674
311,K2LiBO3,K2LiBO3_Va_O3,3.6622,-2.3490071212142856,1.2815457450993528,2.5853234554880604,7.038596770000035,0,311,-1.8820736227458112,9.04702372271909
312,K2MgO2,K2MgO2_Va_O1,2.5940000000000003,-1.9796745647,1.0370545008364616,1.037646905077546,6.131575530000029,0,79,-1.8820736227458112,6.35985902206451
313,K2Na4Be2O5,K2Na4Be2O5_Va_O1,2.5279,-2.0190970670928374,1.079207477104536,1.368427025468652,6.455074309999768,0,449,-1.8820736227458112,6.558739457529124
314,K2Na4Be2O5,K2Na4Be2O5_Va_O2,2.5279,-2.0190970670928374,1.2249327298458936,2.2681964729952075,6.8452371100000935,0,467,-1.8820736227458112,8.500080434950387
315,K2NaTlO3,K2NaTlO3_Va_O1,1.3018,-1.4404617283407233,1.056891181663265,1.121879618375898,2.528148900000028,0,103,-0.5778080287901701,5.225160483612726
316,K2NaTlO3,K2NaTlO3_Va_O2,1.3018,-1.4404617283407233,1.044136746349314,1.1368770722414523,2.585164900000004,0,107,-0.5778080287901701,5.687508433730859
317,K2NaTlO3,K2NaTlO3_Va_O3,1.3018,-1.4404617283407233,1.1982290052571076,1.5421633781646564,2.9388010800000277,0,111,-0.5778080287901701,5.530721823946471
318,K2O,K2O_Va_O1,1.7232,-1.2478575836666663,0.82,0.3385650409912411,4.534054169999999,0,95,-1.8820736227458112,8.232302709535245
319,K2Pb2O3,K2Pb2O3_Va_O1,1.5620000000000005,-1.5674005930000003,1.6435533525261856,2.440610641714416,4.097887880000039,0,223,-1.1369603723458594,6.748238400036652
320,K2PbO2,K2PbO2_Va_O1,1.8729,-1.5445868726999992,1.5280700757987018,1.898156144499617,4.168767949999969,0,287,-1.1369603723458594,7.206307077286043
321,K2PbO2,K2PbO2_Va_O2,1.8729,-1.5445868726999992,1.22109028649284,1.2729591666383462,4.472171290000128,0,323,-1.1369603723458594,6.349238372533817
322,K2PbO2,K2PbO2_Va_O4,1.8729,-1.5445868726999992,1.6398893590728936,1.866650441134311,4.092874670000024,0,359,-1.1369603723458594,6.424822931171246
323,K2Sn2O3,K2Sn2O3_Va_O1,1.1128,-1.7484540158571429,1.55968193550599,3.653780673303535,4.648751720000186,0,223,-1.454625234810769,6.991357102054959
324,K2SnO3,K2SnO3_Va_O1,2.1971,-1.960791325583334,1.6419808485156369,1.9660257004440127,4.479691010000247,0,359,-1.538575818365933,7.610850651991667
325,K2SnO3,K2SnO3_Va_O2,2.1971,-1.960791325583334,1.4201159474305936,0.981756732522758,3.5255807400002457,0,431,-1.538575818365933,5.280053507987287
326,K3AlO3,K3AlO3_Va_O1,2.9283,-2.2661893055714293,1.0800495065327116,1.0387619461920332,6.267663470000011,0,95,-1.8820736227458112,5.8741325988859785
327,K3AlO3,K3AlO3_Va_O2,2.9283,-2.2661893055714293,1.2786564924728616,2.053009951415153,6.590519959999947,0,111,-1.8820736227458112,7.287792940684173
328,K3BiO3,K3BiO3_Va_O1,2.9837,-1.6843301366428576,1.1934222549807096,1.288544118901772,4.336039210000203,0,447,-0.9858147743813158,5.914050263139007
333,K3GaO3,K3GaO3_Va_O1,2.6601,-1.896276210928572,1.1061070957060146,1.0603584466270697,4.972336149999942,0,111,-1.8812876656363955,6.005324463386181
334,K3GaO3,K3GaO3_Va_O2,2.6601,-1.896276210928572,1.333852158847869,1.8971655830202352,5.159453799999946,0,87,-1.8812876656363955,7.299894594325689
335,K3SbO3,K3SbO3_Va_O1,3.2578,-1.824618118785715,1.2538072174838404,1.6317101373212508,4.743258180000007,0,223,-1.2369755737418262,7.03107984956786
336,K4Be3O5,K4Be3O5_Va_O1,3.2212,-2.308588006000001,1.257701346762865,2.184786527545679,7.1359624299999584,0,63,-1.8820736227458112,7.551702250762898
337,K4Be3O5,K4Be3O5_Va_O2,3.2212,-2.308588006000001,1.183539486966224,1.3781464907697278,6.753646529999978,0,79,-1.8820736227458112,8.313057140384728
338,K4Be3O5,K4Be3O5_Va_O3,3.2212,-2.308588006000001,1.184784264141722,1.4398180871089854,6.7667944599999235,0,95,-1.8820736227458112,8.008215646423078
339,K4PbO4,K4PbO4_Va_O1,1.6806,-1.5853561968888892,1.2224163988574512,0.8796687145391631,2.798769679999973,0,233,-0.2712847561180753,6.216568052069362
340,K4PbO4,K4PbO4_Va_O2,1.6806,-1.5853561968888892,1.1979646371667434,0.8175647508665369,2.91189354000006,0,251,-0.2712847561180753,6.165679713919999
341,K4PbO4,K4PbO4_Va_O3,1.6806,-1.5853561968888892,1.2120385651215948,0.8685292194312457,2.6679323500001235,0,323,-0.2712847561180753,6.138048687032517
342,K4PbO4,K4PbO4_Va_O4,1.6806,-1.5853561968888892,1.3188050139552487,0.9202323024462608,2.449365549999934,0,305,-0.2712847561180753,4.827896105013373
343,K4SnO4,K4SnO4_Va_O1,2.3496,-1.833078164111112,1.1516050551456698,0.9923581387123116,4.204709850000095,0,215,-1.538575818365933,6.220059130521401
344,K4SnO4,K4SnO4_Va_O2,2.3496,-1.833078164111112,1.1681144091918765,1.0352734729656528,3.950233590000048,0,251,-1.538575818365933,6.1243849886287975
345,K4SnO4,K4SnO4_Va_O3,2.3496,-1.833078164111112,1.182490890443199,1.056643674357346,4.045207150000019,0,287,-1.538575818365933,6.245079128240521
346,K4SnO4,K4SnO4_Va_O4,2.3496,-1.833078164111112,1.2507091155316088,1.0674981018668082,3.782446660000128,0,323,-1.538575818365933,5.424974966078858
347,K6Si2O7,K6Si2O7_Va_O1,3.5319,-2.4870975168666662,1.790471193679351,3.797042472662029,6.4773957900000685,0,251,-1.8820736227458112,11.161106915032303
348,K6Si2O7,K6Si2O7_Va_O2,3.5319,-2.4870975168666662,1.294650795359,1.7793668779087084,6.392391709999979,0,359,-1.8820736227458112,7.43945632457066
349,K6Si2O7,K6Si2O7_Va_O3,3.5319,-2.4870975168666662,1.2739813815063414,1.7761314716497294,6.380189700000196,0,299,-1.8820736227458112,7.310640949447622
350,K6Si2O7,K6Si2O7_Va_O4,3.5319,-2.4870975168666662,1.2557634113310585,1.8032797918292611,6.447219470000059,0,347,-1.8820736227458112,7.5393005810305045
351,KAsO2,KAsO2_Va_O1,3.7234,-1.893294109499999,2.0428502601032266,3.2521215720271996,4.401670849999968,0,143,-1.150088447140494,8.640472240719427
352,KAsO2,KAsO2_Va_O2,3.7234,-1.893294109499999,1.588438492138496,2.063522492275746,3.475804520000006,0,191,-1.150088447140494,6.139376856875849
353,KBO2,KBO2_Va_O1,4.124499999999999,-2.6493241330416666,1.808379796125676,4.31807050059917,6.284706359999982,0,107,-1.8820736227458112,11.783289835036555
354,KBiO2,KBiO2_Va_O1,1.6872000000000005,-1.7274063657499994,1.6909699068975024,2.182037568463405,4.066238960000087,0,191,-0.9858147743813158,5.592334059559706
355,KInO2,KInO2_Va_O1,2.1456,-1.91814239325,1.635850705304314,1.3579253909924716,4.494489600000074,0,431,-1.5993795332042406,8.205901113779516
356,KLi2BO3,KLi2BO3_Va_O1,4.11,-2.4615572841190474,1.2855047816897072,2.276321570608822,6.899784560000066,0,223,-1.8820736227458112,8.800749683084595
357,KLi2BO3,KLi2BO3_Va_O2,4.11,-2.4615572841190474,1.263958157242166,2.5014175908824923,7.141103179999968,0,215,-1.8820736227458112,10.30749996711338
358,KLi3PbO4,KLi3PbO4_Va_O1,1.5082999999999998,-1.8470879364444448,1.553457002119542,1.7256615262604709,3.167525650000025,0,143,-0.2712847561180753,6.200123352721114
359,KLi3PbO4,KLi3PbO4_Va_O2,1.5082999999999998,-1.8470879364444448,1.281159833024811,1.512911135104135,2.81457178000006,0,103,-0.2712847561180753,6.741289925514708
360,KLi3PbO4,KLi3PbO4_Va_O3,1.5082999999999998,-1.8470879364444448,1.2242356931611795,1.209322431491664,2.6541801700000267,0,119,-0.2712847561180753,6.78527717112693
361,KLi3PbO4,KLi3PbO4_Va_O4,1.5082999999999998,-1.8470879364444448,1.1896122047059587,1.1017051414130348,3.402882620000023,0,135,-0.2712847561180753,7.50178514328082
363,KMgBO3,KMgBO3_Va_O1,4.4397,-2.7871217324444446,1.640229748755042,2.3109804950418784,6.820125110000058,0,191,-1.8820736227458112,8.739540739986678
364,KNa2GaO3,KNa2GaO3_Va_O1,2.6474,-1.935132645871921,1.1397465836804015,1.211066657191185,4.989876499999932,0,111,-1.8812876656363955,6.759663577932416
365,KNa2GaO3,KNa2GaO3_Va_O2,2.6474,-1.935132645871921,1.360742949064231,2.119627629136315,5.259106249999954,0,103,-1.8812876656363955,8.11226527764626
366,KNa2GaO3,KNa2GaO3_Va_O3,2.6474,-1.935132645871921,1.1333040014952391,1.2326162022518727,5.006974459999933,0,91,-1.8812876656363955,6.579553313880909
367,KNaGeO3,KNaGeO3_Va_O1,2.9851,-2.117326609925288,1.8437766363678552,2.9868647661268186,4.37897048000003,0,113,-1.502819088333178,9.395149333312963
368,KNaGeO3,KNaGeO3_Va_O2,2.9851,-2.117326609925288,1.2895395253474982,1.5852786746896497,4.223059799999996,0,137,-1.502819088333178,7.51071197111571
369,KNaGeO3,KNaGeO3_Va_O3,2.9851,-2.117326609925288,1.4978200683451948,1.417702878339132,3.8378607199999895,0,143,-1.502819088333178,6.6511487113880445
370,KSbO2,KSbO2_Va_O1,1.8589,-1.8866991319999995,1.802212692901336,2.920970269980452,4.4793254599998225,0,191,-1.2369755737418262,8.717900788408986
371,KSbO3,KSbO3_Va_O1,2.7925,-2.0533213286,2.2357932253282184,1.8010702005981054,4.3210081300000045,0,269,-0.5208045461292565,6.324043272509368
372,KTlO,KTlO_Va_O1,1.0755,-1.2013808837777784,1.3166777995745214,2.1122458826960884,3.7728499699999904,0,95,-0.8674893634033586,6.832146926043754
373,Li2BeSiO4,Li2BeSiO4_Va_O1,5.9582,-2.9697805114583327,1.5815138258799837,2.287370800501437,6.999505120000217,0,215,-2.356834901289411,10.380923964197494
374,Li2BeSiO4,Li2BeSiO4_Va_O2,5.9582,-2.9697805114583327,1.5767993336371335,2.3139119668091293,6.992015780000097,0,287,-2.356834901289411,10.630783660894382
375,Li2BeSiO4,Li2BeSiO4_Va_O3,5.9582,-2.9697805114583327,1.5467056727564814,2.3039801600180567,7.046757830000056,0,233,-2.356834901289411,10.840005550323301
376,Li2BeSiO4,Li2BeSiO4_Va_O4,5.9582,-2.9697805114583327,1.5400985073205262,2.309044243359462,7.076675580000151,0,269,-2.356834901289411,10.837054606072728
377,Li2CaGeO4,Li2CaGeO4_Va_O1,4.031000000000001,-2.6042605814583326,1.4902274727239526,1.8246241203870817,4.934452970000061,0,255,-1.502819088333178,8.91954089238932
378,Li2GeO3,Li2GeO3_Va_O1,3.4576,-2.322119386944445,1.7564349653506546,2.991069972713284,4.615012139999985,0,79,-1.502819088333178,10.46412568561117
379,Li2GeO3,Li2GeO3_Va_O2,3.4576,-2.322119386944445,1.3652047087203154,1.5468594223209264,4.147495839999928,0,95,-1.502819088333178,8.390753599290791
380,Li2MgGeO4,Li2MgGeO4_Va_O1,3.7342,-2.5282078089583333,1.5074619169487726,1.6489551223037804,5.1041084300003465,0,269,-1.502819088333178,8.47340818268605
381,Li2MgGeO4,Li2MgGeO4_Va_O2,3.7342,-2.5282078089583333,1.4572596274391074,1.6992928168756496,5.144730860000331,0,377,-1.502819088333178,8.474798696644822
382,Li2MgGeO4,Li2MgGeO4_Va_O3,3.7342,-2.5282078089583333,1.5319867475206712,1.6171333775852283,5.076805540000246,0,431,-1.502819088333178,8.361451090821134
383,Li2O,Li2O_Va_O1,4.8772,-2.061597913888889,0.98,1.168204519962669,7.427469659999995,0,95,-3.1005489752967774,12.056796778720049
384,Li2Si2O5,Li2Si2O5_Va_O1,5.181900000000001,-3.0159132185185182,1.4450636453115957,1.6605604586914726,6.351993590000243,0,323,-2.356834901289411,9.165583557557124
385,Li2Si2O5,Li2Si2O5_Va_O2,5.181900000000001,-3.0159132185185182,2.5468374981907833,3.348491891953108,6.090730000000244,0,233,-2.356834901289411,9.635406577802385
386,Li2Si2O5,Li2Si2O5_Va_O3,5.181900000000001,-3.0159132185185182,2.11392758697035,3.5481317001341894,6.377834020000032,0,305,-2.356834901289411,10.969333006509046
387,Li2SiO3,Li2SiO3_Va_O1,5.1448,-2.882895587777778,1.7543676249109714,3.765117542940948,6.508511050000047,0,79,-2.356834901289411,12.187297177536408
388,Li2SiO3,Li2SiO3_Va_O2,5.1448,-2.882895587777778,1.367848009345796,1.9439154367443665,6.448574930000072,0,95,-2.356834901289411,9.476929138048687
389,Li2SnO3,Li2SnO3_Va_O1,3.2893,-2.2246867915277777,1.3884706258381867,1.800804626980335,5.028501769999943,0,95,-1.538575818365933,10.357427573809243
390,Li2SnO3,Li2SnO3_Va_O2,3.2893,-2.2246867915277777,1.421818636299479,1.7373979170556284,4.801895669999917,0,79,-1.538575818365933,10.624018024669617
391,Li2SnO3,Li2SnO3_Va_O3,3.2893,-2.2246867915277777,1.415499632138764,1.7283811814133587,4.833012629999994,0,91,-1.538575818365933,10.64975408184246
392,Li3AsO4,Li3AsO4_Va_O1,4.2397,-2.270408983125,1.5169493855184373,1.9209146331378673,3.925070489999948,0,79,-0.6589084382122885,7.301835889656674
393,Li3AsO4,Li3AsO4_Va_O2,4.2397,-2.270408983125,1.4626668024848646,1.9366917382193185,3.9620100699999146,0,111,-0.6589084382122885,7.403563343926904
394,Li3AsO4,Li3AsO4_Va_O3,4.2397,-2.270408983125,1.471247625471115,1.951400765075329,3.9118312099999546,0,127,-0.6589084382122885,7.425939158025791
395,Li3BO3,Li3BO3_Va_O1,5.2981,-2.5554420863095233,1.309903996244476,2.4966280991303913,7.263640589999918,0,59,-2.1905056483979153,9.993740216705024
396,Li3BO3,Li3BO3_Va_O2,5.2981,-2.5554420863095233,1.2733264597235097,2.570793878591606,7.302907629999945,0,71,-2.1905056483979153,10.421417767777438
397,Li3BO3,Li3BO3_Va_O3,5.2981,-2.5554420863095233,1.2988153919415162,2.5575295415649366,7.33130466000001,0,83,-2.1905056483979153,10.382624079584687
400,Li3SbO4,Li3SbO4_Va_O1,3.2216999999999993,-2.2137175437499996,1.6490904880882649,2.4738478379801805,4.653637580000018,0,431,-0.5208045461292565,10.289562830103545
401,Li3SbO4,Li3SbO4_Va_O2,3.2216999999999993,-2.2137175437499996,1.249083567388437,1.5750525954426997,4.140833370000005,0,404,-0.5208045461292565,9.79741741053432
402,Li4Ca(BO3)2,Li4Ca(BO3)2_Va_O1,4.785500000000001,-2.778116286666667,1.340732269050028,2.4144545403935864,7.1585991099999635,0,53,-2.1905056483979153,9.877975173615646
403,Li4Ca(BO3)2,Li4Ca(BO3)2_Va_O2,4.785500000000001,-2.778116286666667,1.3057261438173848,2.4188471647073015,7.029524329999967,0,65,-2.1905056483979153,9.905193166779307
404,Li4Ca(BO3)2,Li4Ca(BO3)2_Va_O3,4.785500000000001,-2.778116286666667,1.4787474353863248,2.4910067969527896,7.210172189999989,0,77,-2.1905056483979153,10.156488670299426
405,Li4GeO4,Li4GeO4_Va_O1,4.0272,-2.2978871192592587,1.3868120812400504,1.7684252098683788,5.069368779999772,0,431,-1.502819088333178,9.400472756643016
406,Li4GeO4,Li4GeO4_Va_O2,4.0272,-2.2978871192592587,1.3543613916205228,1.7241108942456838,5.180380769999724,0,383,-1.502819088333178,9.69420033142694
407,Li4PbO4,Li4PbO4_Va_O1,1.3723,-1.919143204259259,1.3569145958822,1.4253715182763198,3.022171759999887,0,287,-0.2712847561180753,7.20103904988142
408,Li4PbO4,Li4PbO4_Va_O2,1.3723,-1.919143204259259,1.3792494173530598,1.3452002584233933,2.741590790000041,0,255,-0.2712847561180753,7.439622618208464
412,Li5SbO5,Li5SbO5_Va_O1,3.0783000000000005,-2.198206253787879,1.2491845381245323,1.9795843312888224,5.002255129999989,0,131,-0.5208045461292565,9.499311758537836
413,Li5SbO5,Li5SbO5_Va_O2,3.0783000000000005,-2.198206253787879,1.6322392020531835,2.5550155181691467,4.8999983500000415,0,95,-0.5208045461292565,10.40373132250966
414,Li5SbO5,Li5SbO5_Va_O3,3.0783000000000005,-2.198206253787879,1.2755332551970529,1.7738628893716877,4.800263109999955,0,119,-0.5208045461292565,9.391610026870994
415,Li8SnO6,Li8SnO6_Va_O1,4.0517,-2.1430056621111113,1.1728702208159925,1.3628324117250872,5.918599580000214,0,404,-1.538575818365933,9.6924416091794
416,LiAlO2,LiAlO2_Va_O1,4.6288,-3.082882981458333,1.4296001480574805,1.921063569350896,7.037490029999967,0,255,-2.8945619964631555,8.145905328664941
417,LiAsO3,LiAsO3_Va_O1,3.650700000000001,-1.986835451666666,2.233158903361803,2.5089847451795455,4.2880212300000355,0,269,-0.6589084382122885,8.06758318991015
418,LiBO2,LiBO2_Va_O1,5.501,-2.7379905412500003,2.017867839658265,3.950952674776848,6.6961414100000045,0,143,-2.1905056483979153,12.129912311976986
419,LiBO2,LiBO2_Va_O2,5.501,-2.7379905412500003,1.380511775489672,2.1398734688602414,7.27266962000011,0,191,-2.1905056483979153,9.66441170747533
420,LiGaO2,LiGaO2_Va_O1,3.2567000000000004,-2.3788747770833334,1.5743574027522462,2.0062090249688924,5.0219176399999785,0,215,-1.8812876656363955,7.871517468246127
421,LiGaO2,LiGaO2_Va_O2,3.2567000000000004,-2.3788747770833334,1.5232149763392335,2.0266717357714397,5.0092752899999,0,287,-1.8812876656363955,7.970529542101374
422,LiGeBO4,LiGeBO4_Va_O1,4.3668,-2.4948268210714293,2.1423009090226213,2.7284502198952163,4.87529953999991,0,251,-1.502819088333178,9.90020313020014
423,LiInGeO4,LiInGeO4_Va_O1,2.1927000000000003,-2.173107275119047,2.179260467474238,2.3440319972379275,4.404819460000008,0,111,-1.502819088333178,8.216124497577827
424,LiInGeO4,LiInGeO4_Va_O2,2.1927000000000003,-2.173107275119047,1.9411984979021404,2.1485906027408217,3.863960669999992,0,95,-1.502819088333178,8.159178861184914
425,LiInGeO4,LiInGeO4_Va_O3,2.1927000000000003,-2.173107275119047,1.9675439401673396,1.935897082154968,3.824830659999984,0,107,-1.502819088333178,8.074331995055804
426,LiInO2,LiInO2_Va_O1,1.9281999999999997,-2.0632245620833327,1.4302139050490523,1.639714659382878,4.779716080000023,0,63,-1.5993795332042406,9.608211749301981
427,LiInSiO4,LiInSiO4_Va_O1,3.0281,-2.6540285472619045,2.1348981284626527,2.615830962606502,5.793107670000049,0,111,-1.5993795332042406,8.76654330710539
428,LiInSiO4,LiInSiO4_Va_O2,3.0281,-2.6540285472619045,1.9533932384269577,2.246415449729202,5.649649280000071,0,95,-1.5993795332042406,8.607626601317794
429,LiInSiO4,LiInSiO4_Va_O3,3.0281,-2.6540285472619045,1.9401956693506897,2.154711932666509,5.485765700000011,0,107,-1.5993795332042406,8.677670213748906
430,LiSb3O8,LiSb3O8_Va_O1,1.1262,-1.960145810277778,2.5763752285228496,2.7469254629996245,3.548756499999977,0,47,-0.5208045461292565,6.300814309388144
431,LiSb3O8,LiSb3O8_Va_O2,1.1262,-1.960145810277778,2.7927754650524235,3.559907060411964,4.805076799999947,0,63,-0.5208045461292565,7.220648200612483
432,LiSb3O8,LiSb3O8_Va_O3,1.1262,-1.960145810277778,2.5571000482100716,2.735852057888418,3.753090139999935,0,79,-0.5208045461292565,6.265916277978478
433,LiSb3O8,LiSb3O8_Va_O4,1.1262,-1.960145810277778,2.5187492582146556,2.795003904936185,3.961730699999984,0,95,-0.5208045461292565,6.073697876919056
434,LiSbO3,LiSbO3_Va_O1,2.3049999999999997,-2.118194097166666,2.185232051394197,2.4652643178020996,4.270184690000301,0,359,-0.5208045461292565,6.757032426374687
435,LiSbO3,LiSbO3_Va_O2,2.3049999999999997,-2.118194097166666,2.239950188964073,2.6229005923662303,4.159277680000182,0,287,-0.5208045461292565,7.790321027235265
436,Mg(GaO2)2,Mg(GaO2)2_Va_O1,2.6435999999999997,-2.5373796199999994,2.057437557842043,2.164471286507033,5.6557862899999325,0,111,-1.8812876656363955,8.204829482070764