,formula,full_name,band_gap,formation_energy,nn_ave_eleneg,o2p_center_from_vbm,vacancy_formation_energy,charge,vr_max,oxi_state
586,Cs2BeO2,Cs2BeO2_Va_O1,2.8190999999999997,-2.0228830126724127,1.184602843015307,2.0400287921043465,4.497850387398493,1,-5.057207531681032,2.0
587,Cs2BeO2,Cs2BeO2_Va_O2,2.8190999999999997,-2.0228830126724127,1.0609972061391637,1.14828054545211,4.873400574330091,1,-5.057207531681032,2.0
588,Cs2CeO3,Cs2CeO3_Va_O1,2.5233,-2.6745016659770116,1.3420881524295536,1.3705822028184516,3.0876665246597605,1,-4.011752498965517,4.0
589,Cs2CeO3,Cs2CeO3_Va_O2,2.5233,-2.6745016659770116,1.2425705671637837,0.9863841571496758,2.863454320375509,1,-4.011752498965517,4.0
590,Cs2Pb2O3,Cs2Pb2O3_Va_O1,1.5981,-1.5268511915517244,1.7115984963858488,2.1850257895605347,2.397608510271099,1,-2.6719895852155178,2.0
591,Cs2PbO2,Cs2PbO2_Va_O1,1.8019,-1.4864209311724128,1.5820424991693416,1.9661133941325843,2.4759993178272692,1,-3.716052327931032,2.0
592,Cs2PbO2,Cs2PbO2_Va_O2,1.8019,-1.4864209311724128,1.2496640479790222,1.2824712414129944,2.8343057201642594,1,-3.716052327931032,2.0
593,Cs2PbO2,Cs2PbO2_Va_O3,1.8019,-1.4864209311724128,1.2862496947130024,1.261164042280456,2.774782692782117,1,-3.716052327931032,2.0
594,Cs2PbO2,Cs2PbO2_Va_O4,1.8019,-1.4864209311724128,1.6736420949363475,1.9000637602392312,2.4536079131439203,1,-3.716052327931032,2.0
595,Cs2PbO3,Cs2PbO3_Va_O2,1.4961,-1.5408556518103451,1.7935254477273914,1.5928734516564451,1.455164739397054,1,-2.311283477715518,4.0
596,Cs2SnO3,Cs2SnO3_Va_O1,2.5588999999999995,-1.9013199843103443,1.7187298013467722,1.8796787826834027,2.5972104927769593,1,-2.8519799764655165,4.0
597,Cs2SnO3,Cs2SnO3_Va_O2,2.5588999999999995,-1.9013199843103443,1.3977195288843,0.925032086120494,2.958510337604378,1,-2.8519799764655165,4.0
598,Cs3AlO3,Cs3AlO3_Va_O1,2.5495,-2.1623344291133013,1.0787764553572217,1.0024672997306396,4.551152806765132,1,-5.04544700126437,3.0
599,Cs3AlO3,Cs3AlO3_Va_O2,2.5495,-2.1623344291133013,1.301673256948105,2.018271449934742,4.567961223418582,1,-5.04544700126437,3.0
600,Cs3AlO3,Cs3AlO3_Va_O3,2.5495,-2.1623344291133013,1.1636077212086804,1.0139666307100113,4.620566212250027,1,-5.04544700126437,3.0
601,Cs3As5O9,Cs3As5O9_Va_O1,3.0533,-1.813479687870183,2.300759668132267,3.5853851350950476,1.2491575876495,1,-2.0552769795862074,3.0
602,Cs3As5O9,Cs3As5O9_Va_O2,3.0533,-1.813479687870183,1.784772160448136,2.190229088224017,1.5449279490025292,1,-2.0552769795862074,3.0
603,Cs3BiO3,Cs3BiO3_Va_O1,3.1239,-1.6135073416133006,1.2583858705521815,1.2319948434174932,2.4546740547651975,1,-3.7648504637643683,3.0
604,Cs3GaO3,Cs3GaO3_Va_O1,2.7652,-1.7918229108990151,1.152682345968999,1.1952467384897871,3.5916331667340913,1,-4.180920125431036,3.0
605,Cs3GaO3,Cs3GaO3_Va_O2,2.7652,-1.7918229108990151,1.368666003408448,2.0094397544209035,3.2862315655613257,1,-4.180920125431036,3.0
606,Cs3GaO3,Cs3GaO3_Va_O3,2.7652,-1.7918229108990151,1.147523410796776,1.209305153216084,3.543871836989065,1,-4.180920125431036,3.0
607,Cs3InO3,Cs3InO3_Va_O1,2.162,-1.6228296433990148,1.0806742389079749,0.8131442807694521,2.8728859174887065,1,-3.7866025012643676,3.0
608,Cs3InO3,Cs3InO3_Va_O2,2.162,-1.6228296433990148,1.0714780534549535,0.8084876745712968,2.932476287148829,1,-3.7866025012643676,3.0
609,Cs3InO3,Cs3InO3_Va_O3,2.162,-1.6228296433990148,1.291208814847411,1.5622893014384072,2.885603529301939,1,-3.7866025012643676,3.0
610,Cs3SbO3,Cs3SbO3_Va_O1,3.1413,-1.7730991862561585,1.3014648995320195,1.781327299744202,2.704202613258878,1,-4.137231434597703,3.0
611,Cs3TlO3,Cs3TlO3_Va_O1,1.721,-1.3588165867323485,1.0177236782920165,1.016817471577232,1.8754182751259871,1,-3.170572035708813,3.0
612,Cs3TlO3,Cs3TlO3_Va_O2,1.721,-1.3588165867323485,1.2191740627970171,1.5381944522650497,1.7760031273091583,1,-3.170572035708813,3.0
613,Cs3TlO3,Cs3TlO3_Va_O3,1.721,-1.3588165867323485,1.0343447315919527,0.9991333689248044,1.835725330236243,1,-3.170572035708813,3.0
614,Cs6Ge2O7,Cs6Ge2O7_Va_O1,3.0572999999999997,-1.955927745505748,1.8372139095871296,2.6132137682028223,2.7945434513013163,1,-3.6673645228232776,4.0
615,Cs6Ge2O7,Cs6Ge2O7_Va_O2,3.0572999999999997,-1.955927745505748,1.308838888828172,1.5181205732351406,3.1502051904418567,1,-3.6673645228232776,4.0
616,Cs6Ge2O7,Cs6Ge2O7_Va_O3,3.0572999999999997,-1.955927745505748,1.2737514387069315,1.557822307412096,3.1882217077406096,1,-3.6673645228232776,4.0
617,Cs6Ge2O7,Cs6Ge2O7_Va_O4,3.0572999999999997,-1.955927745505748,1.2851526227502346,1.4882558943095323,3.1951965795965975,1,-3.6673645228232776,4.0
618,Cs6Si2O7,Cs6Si2O7_Va_O1,3.4442,-2.38790383483908,1.307232590920452,1.9356571815195789,4.531296677369129,1,-4.4773196903232755,4.0
619,Cs6Si2O7,Cs6Si2O7_Va_O2,3.4442,-2.38790383483908,1.9097821348071764,3.5076203644962196,3.9560642255786913,1,-4.4773196903232755,4.0
620,Cs6Si2O7,Cs6Si2O7_Va_O3,3.4442,-2.38790383483908,1.3401086576177912,1.8835480322680136,4.532326706579647,1,-4.4773196903232755,4.0
621,Cs6Si2O7,Cs6Si2O7_Va_O4,3.4442,-2.38790383483908,1.3223868432825878,1.8399504589532645,4.541007247020234,1,-4.4773196903232755,4.0
622,CsBO2,CsBO2_Va_O1,3.9296,-2.6054637117744255,1.8364608101788675,4.217811019469719,3.7000869535320167,1,-3.473951615699234,3.0
623,CsBO2,CsBO2_Va_O2,3.9296,-2.6054637117744255,1.3811742318426656,2.164494106944802,5.154786458826624,1,-3.473951615699234,3.0
624,CsSbO2,CsSbO2_Va_O1,2.3945000000000003,-1.8573301069827588,1.8755274292078843,2.790023883755725,2.21054496482906,1,-2.4764401426436784,3.0
625,CsTlO,CsTlO_Va_O1,1.4732000000000005,-1.1640747204214557,1.3207425225196885,1.9117024702670256,2.0116534403137116,1,-3.492224161264367,1.0
626,Ga2O3,Ga2O3_Va_O1,2.2114,-2.268996668999999,2.3894413671718,2.8345721001720285,2.8563129462292114,1,-1.8908305574999993,3.0
627,Ga2O3,Ga2O3_Va_O2,2.2114,-2.268996668999999,2.3313459685068687,2.8870391212766604,2.642667951489239,1,-1.8908305574999993,3.0
628,Ga2O3,Ga2O3_Va_O3,2.2114,-2.268996668999999,2.4005128617292173,2.4635876701348796,2.90488314721856,1,-1.8908305574999993,3.0
629,Ga2PbO4,Ga2PbO4_Va_O1,3.4200000000000004,-2.070018908571428,2.3666933300950235,2.5900641261439423,2.67618451787835,1,-2.4150220599999996,2.0
630,Ga2PbO4,Ga2PbO4_Va_O2,3.4200000000000004,-2.070018908571428,2.350128133368874,2.489193764010925,2.7984054963289813,1,-2.4150220599999996,2.0
631,Ga2PbO4,Ga2PbO4_Va_O3,3.4200000000000004,-2.070018908571428,2.3824577020851097,2.701914834825696,2.8596353481017935,1,-2.4150220599999996,2.0
632,Ga4GeO8,Ga4GeO8_Va_O1,2.2165000000000004,-2.232362397307691,2.3793666061554513,3.090454798134748,2.9135221222982146,1,-2.4183925970833315,4.0
633,Ga4GeO8,Ga4GeO8_Va_O2,2.2165000000000004,-2.232362397307691,2.590542132745094,2.867799700349588,2.572311366703765,1,-2.4183925970833315,4.0
634,GaAsO4,GaAsO4_Va_O1,3.1853,-1.9411355259722216,2.715514224375069,2.473321477298566,1.3100578473446636,1,-2.329362631166666,5.0
635,GaAsO4,GaAsO4_Va_O2,3.1853,-1.9411355259722216,2.719485775624932,2.4577082162698316,1.7142582460189173,1,-2.329362631166666,5.0
636,Ge3Sb2O9,Ge3Sb2O9_Va_O1,2.7623,-1.9797399339285713,2.691501831277756,3.277237424301235,1.8352725648844108,1,-2.3096965895833335,3.0
637,GeO2,GeO2_Va_O1,3.0522,-2.077037438333334,2.725,2.262441673488334,2.8861973534256427,1,-1.5577780787500004,4.0
638,GePbO3,GePbO3_Va_O2,2.5365,-1.9292281530000004,2.6186738845561237,2.8269104136288705,1.9985494945736104,1,-2.4115351912500005,2.0
639,GePbO3,GePbO3_Va_O3,2.5365,-1.9292281530000004,2.6719584035434787,2.8677407307027503,2.198191898782447,1,-2.4115351912500005,2.0
640,InBO3,InBO3_Va_O1,2.7299,-2.460089823833333,2.4200000000000004,2.938655761671348,3.796390813307494,1,-4.100149706388888,3.0
641,K2BeO2,K2BeO2_Va_O1,2.9366000000000003,-2.1087224357000003,1.0788354602723205,1.1404806477997904,5.163893337289377,1,-5.271806089250001,2.0
642,K2BeO2,K2BeO2_Va_O2,2.9366000000000003,-2.1087224357000003,1.1792865484720894,2.165033297398809,4.742982562926423,1,-5.271806089250001,2.0
643,K2MgO2,K2MgO2_Va_O1,2.5940000000000003,-1.9796745647,1.0370545008364616,1.037646905077546,4.766037959143095,1,-4.94918641175,2.0
644,K2O,K2O_Va_O1,1.7232,-1.2478575836666663,0.82,0.3385650409912411,4.193671011566598,1,-1.8717863754999995,1.0
645,K2Pb2O3,K2Pb2O3_Va_O1,1.5620000000000005,-1.5674005930000003,1.6435533525261856,2.440610641714416,2.554019277455571,1,-2.7429510377500006,2.0
646,K2PbO2,K2PbO2_Va_O1,1.8729,-1.5445868726999992,1.5280700757987018,1.898156144499617,2.5819897758700217,1,-3.861467181749998,2.0
647,K2PbO2,K2PbO2_Va_O2,1.8729,-1.5445868726999992,1.22109028649284,1.2729591666383462,3.0487539594634914,1,-3.861467181749998,2.0
648,K2PbO2,K2PbO2_Va_O3,1.8729,-1.5445868726999992,1.241948254313536,1.1819441292291633,3.03423931882561,1,-3.861467181749998,2.0
649,K2PbO2,K2PbO2_Va_O4,1.8729,-1.5445868726999992,1.6398893590728936,1.866650441134311,2.608380711495526,1,-3.861467181749998,2.0
650,K2SnO3,K2SnO3_Va_O1,2.1971,-1.960791325583334,1.6419808485156369,1.9660257004440127,2.7083163234545067,1,-2.941186988375001,4.0
651,K2SnO3,K2SnO3_Va_O2,2.1971,-1.960791325583334,1.4201159474305936,0.981756732522758,3.071916170175963,1,-2.941186988375001,4.0
652,K3AlO3,K3AlO3_Va_O1,2.9283,-2.2661893055714293,1.0800495065327116,1.0387619461920332,4.9804764836406115,1,-5.287775046333334,3.0
653,K3AlO3,K3AlO3_Va_O2,2.9283,-2.2661893055714293,1.2786564924728616,2.053009951415153,4.684701807750381,1,-5.287775046333334,3.0
654,K3BiO3,K3BiO3_Va_O1,2.9837,-1.6843301366428576,1.1934222549807096,1.288544118901772,2.2745174388482727,1,-3.9301036521666677,3.0
655,K3BiO4,K3BiO4_Va_O3,1.2363,-1.647860952375,1.3596332206159163,1.1099608188972532,1.5487542853672414,1,-2.6365775238,5.0
656,K3BiO4,K3BiO4_Va_O4,1.2363,-1.647860952375,1.7553476780368211,2.1460719008515103,0.775478670345559,1,-2.6365775238,5.0
657,K3GaO3,K3GaO3_Va_O1,2.6601,-1.896276210928572,1.1061070957060146,1.0603584466270697,3.8521601695684087,1,-4.424644492166668,3.0
658,K3GaO3,K3GaO3_Va_O2,2.6601,-1.896276210928572,1.333852158847869,1.8971655830202352,3.4407180467901943,1,-4.424644492166668,3.0
659,K3SbO3,K3SbO3_Va_O1,3.2578,-1.824618118785715,1.2538072174838404,1.6317101373212508,2.9598832095543823,1,-4.2574422771666685,3.0
660,K4Be3O5,K4Be3O5_Va_O1,3.2212,-2.308588006000001,1.257701346762865,2.184786527545679,5.304838265804646,1,-4.617176012000002,2.0
661,K4Be3O5,K4Be3O5_Va_O2,3.2212,-2.308588006000001,1.183539486966224,1.3781464907697278,4.82410303120105,1,-4.617176012000002,2.0
662,K4Be3O5,K4Be3O5_Va_O3,3.2212,-2.308588006000001,1.184784264141722,1.4398180871089854,4.754746225019637,1,-4.617176012000002,2.0
663,K4PbO4,K4PbO4_Va_O1,1.6806,-1.5853561968888892,1.2224163988574512,0.8796687145391631,2.217789534479252,1,-3.5670514430000004,4.0
664,K4PbO4,K4PbO4_Va_O2,1.6806,-1.5853561968888892,1.1979646371667434,0.8175647508665369,2.312484327438762,1,-3.5670514430000004,4.0
665,K4PbO4,K4PbO4_Va_O3,1.6806,-1.5853561968888892,1.2120385651215948,0.8685292194312457,2.0083447538485046,1,-3.5670514430000004,4.0
666,K4PbO4,K4PbO4_Va_O4,1.6806,-1.5853561968888892,1.3188050139552487,0.9202323024462608,1.847330687533206,1,-3.5670514430000004,4.0
667,K4SnO4,K4SnO4_Va_O1,2.3496,-1.833078164111112,1.1516050551456698,0.9923581387123116,3.37678564136883,1,-4.124425869250002,4.0
668,K4SnO4,K4SnO4_Va_O2,2.3496,-1.833078164111112,1.1681144091918765,1.0352734729656528,3.116226486433191,1,-4.124425869250002,4.0
669,K4SnO4,K4SnO4_Va_O3,2.3496,-1.833078164111112,1.182490890443199,1.056643674357346,3.279844265611324,1,-4.124425869250002,4.0
670,K4SnO4,K4SnO4_Va_O4,2.3496,-1.833078164111112,1.2507091155316088,1.0674981018668082,3.0525128451618926,1,-4.124425869250002,4.0
671,K6MgO4,K6MgO4_Va_O1,1.7312,-1.5861545939090913,0.9224249235006576,0.7547089892170609,4.571643844391261,1,-2.9079500888333336,2.0
672,K6MgO4,K6MgO4_Va_O2,1.7312,-1.5861545939090913,0.9188701482320633,0.7077045917073994,4.445217639213089,1,-2.9079500888333336,2.0
673,K6Si2O7,K6Si2O7_Va_O1,3.5319,-2.4870975168666662,1.790471193679351,3.797042472662029,3.9435497903432744,1,-4.663307844124999,4.0
674,K6Si2O7,K6Si2O7_Va_O2,3.5319,-2.4870975168666662,1.294650795359,1.7793668779087084,4.7897512475867865,1,-4.663307844124999,4.0
675,K6Si2O7,K6Si2O7_Va_O3,3.5319,-2.4870975168666662,1.2739813815063414,1.7761314716497294,4.762226607959575,1,-4.663307844124999,4.0
676,K6Si2O7,K6Si2O7_Va_O4,3.5319,-2.4870975168666662,1.2557634113310585,1.8032797918292611,4.802013150280963,1,-4.663307844124999,4.0
677,KAsO2,KAsO2_Va_O1,3.7234,-1.893294109499999,2.0428502601032266,3.2521215720271996,1.5395874978376007,1,-2.524392145999999,3.0
678,KAsO2,KAsO2_Va_O2,3.7234,-1.893294109499999,1.588438492138496,2.063522492275746,2.5689774178471234,1,-2.524392145999999,3.0
679,KBO2,KBO2_Va_O1,4.124499999999999,-2.6493241330416666,1.808379796125676,4.31807050059917,3.8515005627139023,1,-3.532432177388889,3.0
680,KBO2,KBO2_Va_O2,4.124499999999999,-2.6493241330416666,1.393001769043842,2.1606247264216587,5.338769835704799,1,-3.532432177388889,3.0
681,KBiO2,KBiO2_Va_O1,1.6872000000000005,-1.7274063657499994,1.6909699068975024,2.182037568463405,2.265751824220533,1,-2.303208487666666,3.0
682,KInO2,KInO2_Va_O1,2.1456,-1.91814239325,1.635850705304314,1.3579253909924716,2.766709773947759,1,-2.557523191,3.0
683,KSbO2,KSbO2_Va_O1,1.8589,-1.8866991319999995,1.802212692901336,2.920970269980452,2.301834696591606,1,-2.515598842666666,3.0
684,KSbO3,KSbO3_Va_O1,2.7925,-2.0533213286,2.2357932253282184,1.8010702005981054,2.3911066557473317,1,-2.0533213286,5.0
685,KTlO,KTlO_Va_O1,1.0755,-1.2013808837777784,1.3166777995745214,2.1122458826960884,2.097587966711301,1,-3.6041426513333352,1.0
686,Li2GeO3,Li2GeO3_Va_O1,3.4576,-2.322119386944445,1.7564349653506546,2.991069972713284,2.8993290834322334,1,-3.483179080416668,4.0
687,Li2GeO3,Li2GeO3_Va_O2,3.4576,-2.322119386944445,1.3652047087203154,1.5468594223209264,3.248557471547689,1,-3.483179080416668,4.0
688,Li2O,Li2O_Va_O1,4.8772,-2.061597913888889,0.98,1.168204519962669,5.394661848935825,1,-3.0923968708333334,1.0
689,Li2Si2O5,Li2Si2O5_Va_O1,5.181900000000001,-3.0159132185185182,1.4450636453115957,1.6605604586914726,4.953261076265294,1,-3.3929023708333332,4.0
690,Li2Si2O5,Li2Si2O5_Va_O2,5.181900000000001,-3.0159132185185182,2.5468374981907833,3.348491891953108,4.703213099538201,1,-3.3929023708333332,4.0
691,Li2Si2O5,Li2Si2O5_Va_O3,5.181900000000001,-3.0159132185185182,2.11392758697035,3.5481317001341894,4.668858073937589,1,-3.3929023708333332,4.0
692,Li2SiO3,Li2SiO3_Va_O1,5.1448,-2.882895587777778,1.7543676249109714,3.765117542940948,4.319276177913611,1,-4.324343381666667,4.0
693,Li2SiO3,Li2SiO3_Va_O2,5.1448,-2.882895587777778,1.367848009345796,1.9439154367443665,4.866598817486171,1,-4.324343381666667,4.0
694,Li2SnO3,Li2SnO3_Va_O1,3.2893,-2.2246867915277777,1.3884706258381867,1.800804626980335,3.050208851892366,1,-3.3370301872916666,4.0
695,Li2SnO3,Li2SnO3_Va_O2,3.2893,-2.2246867915277777,1.421818636299479,1.7373979170556284,2.8710308249028342,1,-3.3370301872916666,4.0
696,Li2SnO3,Li2SnO3_Va_O3,3.2893,-2.2246867915277777,1.415499632138764,1.7283811814133587,2.8967368651172647,1,-3.3370301872916666,4.0
697,Li3AsO4,Li3AsO4_Va_O1,4.2397,-2.270408983125,1.5169493855184373,1.9209146331378673,2.803130437191342,1,-3.632654373,5.0
698,Li3AsO4,Li3AsO4_Va_O2,4.2397,-2.270408983125,1.4626668024848646,1.9366917382193185,2.740268836548691,1,-3.632654373,5.0
699,Li3AsO4,Li3AsO4_Va_O3,4.2397,-2.270408983125,1.471247625471115,1.951400765075329,2.690023639579814,1,-3.632654373,5.0
700,Li3BO3,Li3BO3_Va_O1,5.2981,-2.5554420863095233,1.309903996244476,2.4966280991303913,4.798277232740048,1,-5.962698201388888,3.0
701,Li3BO3,Li3BO3_Va_O2,5.2981,-2.5554420863095233,1.2733264597235097,2.570793878591606,4.81479731759157,1,-5.962698201388888,3.0
702,Li3BO3,Li3BO3_Va_O3,5.2981,-2.5554420863095233,1.2988153919415162,2.5575295415649366,4.790798412402802,1,-5.962698201388888,3.0
703,Li3BiO4,Li3BiO4_Va_O2,1.5349,-1.884712245,1.6260762693038433,2.07351588992375,1.1477907378204235,1,-3.015539592,5.0
704,Li3SbO4,Li3SbO4_Va_O1,3.2216999999999993,-2.2137175437499996,1.6490904880882649,2.4738478379801805,2.4431457241635783,1,-3.5419480699999992,5.0
705,Li3SbO4,Li3SbO4_Va_O2,3.2216999999999993,-2.2137175437499996,1.249083567388437,1.5750525954426997,2.9084295209751048,1,-3.5419480699999992,5.0
706,Li4GeO4,Li4GeO4_Va_O1,4.0272,-2.2978871192592587,1.3868120812400504,1.7684252098683788,3.6959301576102,1,-5.170246018333332,4.0
707,Li4GeO4,Li4GeO4_Va_O2,4.0272,-2.2978871192592587,1.3543613916205228,1.7241108942456838,3.66248291868375,1,-5.170246018333332,4.0
708,Li4PbO4,Li4PbO4_Va_O1,1.3723,-1.919143204259259,1.3569145958822,1.4253715182763198,2.1865220996843924,1,-4.318072209583333,4.0
709,Li4PbO4,Li4PbO4_Va_O2,1.3723,-1.919143204259259,1.3792494173530598,1.3452002584233933,2.0009381509209208,1,-4.318072209583333,4.0
710,Li5BiO5,Li5BiO5_Va_O1,1.5062,-1.9488605756060613,1.203554022203606,1.7397699228723302,1.130028362537688,1,-4.2874932663333345,5.0
711,Li5BiO5,Li5BiO5_Va_O2,1.5062,-1.9488605756060613,1.540209613620437,2.2017752713403484,1.2540834193388917,1,-4.2874932663333345,5.0
712,Li5BiO5,Li5BiO5_Va_O3,1.5062,-1.9488605756060613,1.225025306062086,1.5569234638985447,1.1274434404132567,1,-4.2874932663333345,5.0
713,Li5SbO5,Li5SbO5_Va_O1,3.0783000000000005,-2.198206253787879,1.2491845381245323,1.9795843312888224,3.3423336575651836,1,-4.836053758333334,5.0
714,Li5SbO5,Li5SbO5_Va_O2,3.0783000000000005,-2.198206253787879,1.6322392020531835,2.5550155181691467,2.663135769683146,1,-4.836053758333334,5.0
715,Li5SbO5,Li5SbO5_Va_O3,3.0783000000000005,-2.198206253787879,1.2755332551970529,1.7738628893716877,3.109740084353767,1,-4.836053758333334,5.0
716,Li8SnO6,Li8SnO6_Va_O1,4.0517,-2.1430056621111113,1.1728702208159925,1.3628324117250872,4.167119142955207,1,-4.018135616458334,4.0
717,LiAlO2,LiAlO2_Va_O1,4.6288,-3.082882981458333,1.4296001480574805,1.921063569350896,5.3113964874873085,1,-4.110510641944444,3.0
718,LiAsO3,LiAsO3_Va_O1,3.650700000000001,-1.986835451666666,2.233158903361803,2.5089847451795455,1.833802127280544,1,-1.986835451666666,5.0
719,LiBO2,LiBO2_Va_O1,5.501,-2.7379905412500003,2.017867839658265,3.950952674776848,4.363379278611207,1,-3.6506540550000004,3.0
720,LiBO2,LiBO2_Va_O2,5.501,-2.7379905412500003,1.380511775489672,2.1398734688602414,5.160450099693747,1,-3.6506540550000004,3.0
721,LiGaO2,LiGaO2_Va_O1,3.2567000000000004,-2.3788747770833334,1.5743574027522462,2.0062090249688924,3.718531280734654,1,-3.1718330361111113,3.0
722,LiGaO2,LiGaO2_Va_O2,3.2567000000000004,-2.3788747770833334,1.5232149763392335,2.0266717357714397,3.67421222321705,1,-3.1718330361111113,3.0
723,LiInO2,LiInO2_Va_O1,1.9281999999999997,-2.0632245620833327,1.4302139050490523,1.639714659382878,2.8487626147824177,1,-2.750966082777777,3.0
724,LiSb3O8,LiSb3O8_Va_O1,1.1262,-1.960145810277778,2.5763752285228496,2.7469254629996245,1.849254780928932,1,-1.5681166482222224,5.0
725,LiSb3O8,LiSb3O8_Va_O3,1.1262,-1.960145810277778,2.5571000482100716,2.735852057888418,2.0184643231303534,1,-1.5681166482222224,5.0
726,LiSb3O8,LiSb3O8_Va_O4,1.1262,-1.960145810277778,2.5187492582146556,2.795003904936185,2.220868413031444,1,-1.5681166482222224,5.0
727,LiSbO3,LiSbO3_Va_O1,2.3049999999999997,-2.118194097166666,2.185232051394197,2.4652643178020996,2.2580275770608704,1,-2.118194097166666,5.0
728,LiSbO3,LiSbO3_Va_O2,2.3049999999999997,-2.118194097166666,2.239950188964073,2.6229005923662303,2.37227196752787,1,-2.118194097166666,5.0
729,Mg(GaO2)2,Mg(GaO2)2_Va_O1,2.6435999999999997,-2.5373796199999994,2.057437557842043,2.164471286507033,3.6380664887006926,1,-2.9602762233333326,3.0
730,Mg(GaO2)2,Mg(GaO2)2_Va_O2,2.6435999999999997,-2.5373796199999994,2.164791428412206,2.4422308896483296,3.1698068775387283,1,-2.9602762233333326,3.0
731,Mg(SbO2)2,Mg(SbO2)2_Va_O1,2.3566000000000003,-2.1705149424999997,2.247257477502938,2.5266811950259194,2.860763779915909,1,-2.5322674329166666,3.0
732,Mg(SbO2)2,Mg(SbO2)2_Va_O2,2.3566000000000003,-2.1705149424999997,2.3913436234518324,3.5438403880333182,1.9912609257496865,1,-2.5322674329166666,3.0