,formula,full_name,band_gap,formation_energy,nn_ave_eleneg,o2p_center_from_vbm,vacancy_formation_energy,charge,vacancy_index,vr_max,Eb_sum
836,BaBeSiO4,BaBeSiO4_Va_O2,4.6335,-3.324616174999999,2.036395173076552,2.6104378530900005,4.332355931729143,1,179,-2.356834901289411,8.777888449209973
837,BaBeSiO4,BaBeSiO4_Va_O3,4.6335,-3.324616174999999,2.051428678277335,2.5551493774155816,4.372387208109382,1,251,-2.356834901289411,8.801911426464525
838,BaBiBO4,BaBiBO4_Va_O1,3.5113000000000003,-2.6110980834523803,2.2408053105451655,2.95382701364722,3.4887387687213396,1,431,-0.9858147743813158,7.49768569041022
839,BaBiBO4,BaBiBO4_Va_O2,3.5113000000000003,-2.6110980834523803,2.053417543228978,2.8335319730380526,3.5438691124022776,1,447,-0.9858147743813158,8.136957538823452
840,BaBiBO4,BaBiBO4_Va_O3,3.5113000000000003,-2.6110980834523803,2.1205169417148215,1.1874519924429037,2.3731386358602062,1,415,-0.9858147743813158,5.152916162086042
841,BaCa(GaO2)4,BaCa(GaO2)4_Va_O1,3.1133000000000006,-2.6343520764285713,2.051275958071092,2.0898892246455905,3.2570535362444746,1,287,-1.8812876656363955,7.183620385756021
842,BaCa(GaO2)4,BaCa(GaO2)4_Va_O2,3.1133000000000006,-2.6343520764285713,2.049749882923683,1.950754625902917,3.198934351035861,1,239,-1.8812876656363955,6.654018317660037
843,BaCa(GaO2)4,BaCa(GaO2)4_Va_O3,3.1133000000000006,-2.6343520764285713,2.0079246625902845,1.942056585405768,3.2293854271972577,1,335,-1.8812876656363955,7.155207348799437
844,BaCeO3,BaCeO3_Va_O1,2.8160000000000003,-3.5906097180000005,1.8350108684217412,1.4264059625723655,3.117252769801058,1,215,-1.974911567461291,8.002971569467428
845,BaCeO3,BaCeO3_Va_O2,2.8160000000000003,-3.5906097180000005,1.810524567323138,1.4759702902994876,3.1251180143363237,1,359,-1.974911567461291,8.269712730150964
846,BaGa2B2O7,BaGa2B2O7_Va_O1,4.0867,-2.7636706123611106,2.0813793101847797,1.866419096298746,3.621720748461952,1,63,-1.8812876656363955,6.9328821950612936
847,BaGa2B2O7,BaGa2B2O7_Va_O2,4.0867,-2.7636706123611106,2.183171644268999,4.10971585937684,3.3634981886891593,1,67,-1.8812876656363955,11.80316895445485
848,BaGa2B2O7,BaGa2B2O7_Va_O3,4.0867,-2.7636706123611106,2.177652698351102,3.0107618446602507,4.306586375097774,1,91,-1.8812876656363955,8.146251138500098
849,BaGa2B2O7,BaGa2B2O7_Va_O4,4.0867,-2.7636706123611106,2.413505392208307,2.8267349497719536,4.297949204699917,1,95,-1.8812876656363955,7.83354273726878
850,BaGa4O7,BaGa4O7_Va_O1,2.4256,-2.486273411249999,2.184562762634154,3.418343293318623,2.8898694193552057,1,287,-1.8812876656363955,7.3717408397519
851,BaGa4O7,BaGa4O7_Va_O2,2.4256,-2.486273411249999,2.031120713759927,2.3815695472863627,3.5725117855337647,1,263,-1.8812876656363955,6.805355914270454
852,BaGa4O7,BaGa4O7_Va_O3,2.4256,-2.486273411249999,2.2079276758982274,2.430248638420524,3.4637445156588917,1,251,-1.8812876656363955,6.016028193669821
853,BaGa4O7,BaGa4O7_Va_O4,2.4256,-2.486273411249999,2.207244346453633,2.4264080351591204,3.265648159709074,1,215,-1.8812876656363955,6.037747668207942
854,BaGeO3,BaGeO3_Va_O1,3.4095,-2.6960020335,2.0186865948217916,1.490996637447907,2.838170724500455,1,71,-1.502819088333178,6.809273711072201
855,BaGeO3,BaGeO3_Va_O2,3.4095,-2.6960020335,2.0131570978094837,1.4936078308699072,2.831752251157943,1,95,-1.502819088333178,6.724171674902124
856,BaGeO3,BaGeO3_Va_O3,3.4095,-2.6960020335,2.316511368749405,2.730229943585275,2.439628506503587,1,119,-1.502819088333178,9.02602877405912
857,BaGePbO4,BaGePbO4_Va_O1,3.3755,-2.3497993528571435,2.2075584447447465,2.290866305566537,2.317810102001155,1,191,-1.1369603723458594,6.881298889038337
858,BaGePbO4,BaGePbO4_Va_O2,3.3755,-2.3497993528571435,2.110424425675723,1.6952815919881998,2.7724702706881565,1,239,-1.1369603723458594,6.7855337109057565
859,BaGePbO4,BaGePbO4_Va_O3,3.3755,-2.3497993528571435,2.2985402101320074,2.0406621833416136,2.3951274725023044,1,287,-1.1369603723458594,6.828317025746571
860,BaGePbO4,BaGePbO4_Va_O4,3.3755,-2.3497993528571435,2.177517978021965,2.340345299702852,2.408856036792394,1,335,-1.1369603723458594,7.118034795031651
861,BaLiBO3,BaLiBO3_Va_O1,4.3964,-2.9588598808333337,1.6729691364717565,2.577250853989843,4.331915393334127,1,191,-2.1905056483979153,8.694079547248458
862,BaLiBO3,BaLiBO3_Va_O2,4.3964,-2.9588598808333337,1.4289886026329244,2.691006742313024,4.298691217392023,1,183,-2.1905056483979153,9.404053061271792
863,BaLiBO3,BaLiBO3_Va_O3,4.3964,-2.9588598808333337,1.53754901310518,2.646135996449018,4.328759830485708,1,159,-2.1905056483979153,9.127026590831267
864,BaNaBO3,BaNaBO3_Va_O1,3.7356000000000007,-2.8548703726197324,1.5407287761432102,2.509697461111415,4.340122374728147,1,359,-2.158566424325179,8.615444624956302
865,BaNaBO3,BaNaBO3_Va_O2,3.7356000000000007,-2.8548703726197324,1.5373385911452355,2.5242918951106903,4.392622460565108,1,431,-2.158566424325179,8.662312579247045
866,BaO,BaO_Va_O1,1.8639,-2.8236447624999994,0.8900000000000002,1.0286716207655016,4.308322994983372,1,63,-2.8403280769497066,10.180656153899415
867,BaSi3SnO9,BaSi3SnO9_Va_O1,3.8655,-3.09274423,2.471517089830876,2.5173667705719365,4.159174973429243,1,111,-1.538575818365933,7.586329275579235
868,BaSi3SnO9,BaSi3SnO9_Va_O2,3.8655,-3.09274423,2.4936324870049154,3.489325961160364,4.414959353632467,1,103,-1.538575818365933,9.824481034164549
869,BaSn(GeO3)3,BaSn(GeO3)3_Va_O1,2.7438,-2.351820577142858,2.541033501659523,2.7764566140128477,2.520852857949711,1,63,-1.502819088333178,7.707100451466698
870,BaSn(GeO3)3,BaSn(GeO3)3_Va_O2,2.7438,-2.351820577142858,2.502816582503572,2.1198972465106536,2.201525889649581,1,111,-1.502819088333178,6.910120656207457
871,BaSr2Mg(SiO4)2,BaSr2Mg(SiO4)2_Va_O1,4.8603,-3.37927034952381,2.065995745765302,1.8374745046862495,4.356045000496491,1,143,-2.356834901289411,7.385515498499417
872,BaSr2Mg(SiO4)2,BaSr2Mg(SiO4)2_Va_O2,4.8603,-3.37927034952381,1.807324916546479,2.42808934416281,4.259442927545114,1,251,-2.356834901289411,9.142102427859383
873,BeAl2O4,BeAl2O4_Va_O1,6.2674,-3.3529182539285713,2.0969475100120025,2.331450092422872,4.72137746438862,1,79,-2.8945619964631555,9.67417202478343
874,BeAl2O4,BeAl2O4_Va_O2,6.2674,-3.3529182539285713,2.0443506054519656,2.945332819624798,4.785233249283326,1,95,-2.8945619964631555,9.605088549317703
875,BeAl2O4,BeAl2O4_Va_O3,6.2674,-3.3529182539285713,2.051983358903639,2.6570320590633525,4.640185896385134,1,111,-2.8945619964631555,10.242105907222932
876,BeO,BeO_Va_O1,7.4735,-3.1028558024999997,1.7045243414171556,2.56383046489316,5.194772300257529,1,299,-3.156179192239042,12.272995096389756
877,BeTlAsO4,BeTlAsO4_Va_O1,3.4400000000000004,-2.04176959047619,2.323202994387384,3.280003496341653,1.8082145850600428,1,255,-0.6589084382122885,6.47033992482253
878,BeTlAsO4,BeTlAsO4_Va_O2,3.4400000000000004,-2.04176959047619,2.317351757376583,3.217439530285585,1.7579576992528338,1,319,-0.6589084382122885,6.225831699880165
879,BeTlAsO4,BeTlAsO4_Va_O3,3.4400000000000004,-2.04176959047619,2.2085485528376574,3.2272401748113677,1.5287752053783266,1,383,-0.6589084382122885,6.4727921517224845
880,BeTlAsO4,BeTlAsO4_Va_O4,3.4400000000000004,-2.04176959047619,2.2941024483966763,3.319128878980706,1.8663937028178477,1,447,-0.6589084382122885,6.288130426096069
881,Bi2O3,Bi2O3_Va_O1,2.1518000000000006,-1.6417272149999995,2.5534711302971105,2.572681787528063,1.5949257844881852,1,143,-0.9858147743813158,5.558325515459918
882,Bi2O3,Bi2O3_Va_O2,2.1518000000000006,-1.6417272149999995,2.5818292627200585,2.4718292317832677,1.608076709936071,1,191,-0.9858147743813158,4.878119841026061
883,Bi2O3,Bi2O3_Va_O3,2.1518000000000006,-1.6417272149999995,2.523204218589346,2.561136419992206,1.415810018089293,1,239,-0.9858147743813158,6.196910505177226
884,BiAsO4,BiAsO4_Va_O1,3.2501,-1.766119035,2.7975842130139705,2.621805659606698,0.8867770684533058,1,95,-0.6589084382122885,4.753785643565951
885,BiAsO4,BiAsO4_Va_O2,3.2501,-1.766119035,2.758464278013782,2.928444901237197,0.8451534616799814,1,127,-0.6589084382122885,4.837637163281143
886,BiAsO4,BiAsO4_Va_O3,3.2501,-1.766119035,2.758574603219192,2.592039016935125,1.1131645793835527,1,159,-0.6589084382122885,4.608425725556469
887,BiAsO4,BiAsO4_Va_O4,3.2501,-1.766119035,2.7653769057530555,2.781303980765942,1.1000413250547656,1,191,-0.6589084382122885,4.745521239119133
888,BiBO3,BiBO3_Va_O1,2.9598,-2.2904667498333326,2.454892262595023,3.678526623688129,2.948158175069363,1,287,-0.9858147743813158,7.178967174067419
889,BiBO3,BiBO3_Va_O2,2.9598,-2.2904667498333326,2.5504895340269664,3.646173626502017,2.862203398530907,1,383,-0.9858147743813158,7.134707127284747
890,BiBO3,BiBO3_Va_O3,2.9598,-2.2904667498333326,2.5259785030950317,3.6372535860496025,3.046727094582966,1,479,-0.9858147743813158,7.056489063180471
892,BiSbO4,BiSbO4_Va_O1,2.7211999999999996,-1.8414490133333337,2.7621815566760333,2.536388998142183,1.546733356992118,1,63,-0.5208045461292565,5.114989514248197
893,BiSbO4,BiSbO4_Va_O2,2.7211999999999996,-1.8414490133333337,2.730940198763093,2.404865647399249,2.1174407518627723,1,95,-0.5208045461292565,6.3098698243598115
894,Ca(AsO3)2,Ca(AsO3)2_Va_O1,3.5512,-2.229921160000001,2.6133333333333333,2.5382287646651127,2.064986752329342,1,242,-0.6589084382122885,7.294805206234247
895,Ca(SbO3)2,Ca(SbO3)2_Va_O1,2.819,-2.3709468211111124,2.5700000000000003,2.179507565466953,2.5360622349766215,1,242,-0.5208045461292565,6.554428525241038
896,Ca2BiAsO6,Ca2BiAsO6_Va_O1,3.1952,-2.5414911255000003,2.1603918703408738,1.981424752983667,2.812356854260887,1,63,-0.6589084382122885,6.6455069490928835
897,Ca2BiAsO6,Ca2BiAsO6_Va_O2,3.1952,-2.5414911255000003,2.253965683130435,2.9607889017713513,1.9801078339342355,1,79,-0.6589084382122885,6.219042220075638
898,Ca2GeO4,Ca2GeO4_Va_O1,3.5397999999999996,-2.9902279757142853,1.8187175870527823,1.6975885421144523,3.5447628421393604,1,103,-1.502819088333178,8.564774886631373
899,Ca2GeO4,Ca2GeO4_Va_O2,3.5397999999999996,-2.9902279757142853,1.9067559486019268,1.524341258968782,3.392799424927317,1,107,-1.502819088333178,8.235017314762832
900,Ca2GeO4,Ca2GeO4_Va_O3,3.5397999999999996,-2.9902279757142853,1.8443538481348536,2.0001051572391737,3.282883838504123,1,111,-1.502819088333178,8.377000608051688
901,Ca2PbO4,Ca2PbO4_Va_O1,1.5421000000000005,-2.551106224285714,1.8408434446115292,1.4609270112128203,2.444521250923909,1,299,-0.2712847561180753,9.019602615049275
902,Ca2Sb2O7,Ca2Sb2O7_Va_O1,1.9044000000000008,-2.5944479686363637,2.456497016766801,2.7728875055574296,2.048140909120093,1,255,-0.5208045461292565,7.364202309420018
903,Ca2Sb2O7,Ca2Sb2O7_Va_O2,1.9044000000000008,-2.5944479686363637,2.4988791358902342,2.9941408148235684,2.1177067284774207,1,287,-0.5208045461292565,6.698917746678508
904,Ca2Sb2O7,Ca2Sb2O7_Va_O3,1.9044000000000008,-2.5944479686363637,2.0475663985212806,1.6521068381754258,2.8975680019197156,1,351,-0.5208045461292565,7.447399000495166
905,Ca2SiO4,Ca2SiO4_Va_O1,4.253,-3.4766319846428573,1.8885247453887923,1.8762993523597489,4.662954824151959,1,119,-2.356834901289411,8.683275683754719
906,Ca2SiO4,Ca2SiO4_Va_O2,4.253,-3.4766319846428573,1.794554724261243,2.1087456067238777,4.632168088296648,1,143,-2.356834901289411,9.013847868393244
907,Ca2SiO4,Ca2SiO4_Va_O3,4.253,-3.4766319846428573,1.8128060079352744,2.2717234534008717,4.69846787620051,1,167,-2.356834901289411,8.844443502787929
908,Ca2Sn3O8,Ca2Sn3O8_Va_O1,2.5858,-2.5545313888461525,2.354002292434437,1.5835623089349955,3.0727149220367744,1,55,-1.538575818365933,6.582433123437993
909,Ca2Sn3O8,Ca2Sn3O8_Va_O2,2.5858,-2.5545313888461525,2.385825707804043,2.2732986530131076,2.7882954924811196,1,71,-1.538575818365933,8.667414903777926
910,Ca2Sn3O8,Ca2Sn3O8_Va_O3,2.5858,-2.5545313888461525,2.1800859998807605,1.8137598305077427,3.1383706741321697,1,103,-1.538575818365933,8.123770875523004
911,Ca2SnO4,Ca2SnO4_Va_O1,2.841899999999999,-2.886048206428571,1.7850900552447395,1.4545719027830912,3.797814247775304,1,299,-1.538575818365933,9.265605158345334
912,Ca2SnO4,Ca2SnO4_Va_O2,2.841899999999999,-2.886048206428571,2.048321038806505,1.641962653738677,3.3487790305630636,1,419,-1.538575818365933,9.32615717718792
913,Ca3(BO3)2,Ca3(BO3)2_Va_O1,4.9902,-3.288179811212121,1.82848968227586,2.5767985882804023,4.361337803246379,1,65,-2.1905056483979153,9.096443620842072
914,Ca4As2O,Ca4As2O_Va_O1,1.0927000000000002,-1.8127497364285716,1.0107909576537852,3.667272518986856,4.333444981451109,1,125,-3.2905001259273035,10.329228572035689
916,Ca4Sb2O,Ca4Sb2O_Va_O1,0.7953999999999999,-1.7807082792857143,1.005707884295004,3.7018123291650302,4.155294323413599,1,223,-3.2905001259273035,10.427310462442705
917,CaAl2(SiO4)2,CaAl2(SiO4)2_Va_O1,4.7445,-3.426421389615385,2.2247122561229453,2.867429592559109,4.95083791441947,1,197,-2.356834901289411,8.741755690861666
918,CaAl2(SiO4)2,CaAl2(SiO4)2_Va_O2,4.7445,-3.426421389615385,2.5640616202147006,2.257809906846316,4.9734220137691665,1,233,-2.356834901289411,7.432281630168499
919,CaAl4O7,CaAl4O7_Va_O1,4.1142,-3.4639722058333335,2.088177094032116,3.144216966527723,4.22405222847978,1,167,-2.8945619964631555,7.913433517721903
920,CaAl4O7,CaAl4O7_Va_O2,4.1142,-3.4639722058333335,2.1039549337889567,2.138266166770475,5.035216993022254,1,215,-2.8945619964631555,6.708269720611802
921,CaAl4O7,CaAl4O7_Va_O3,4.1142,-3.4639722058333335,1.963616567386678,2.110231573195404,5.042351922698292,1,287,-2.8945619964631555,7.285776230820881
922,CaAl4O7,CaAl4O7_Va_O4,4.1142,-3.4639722058333335,2.0158749846122253,2.377521384129426,4.383848352954572,1,263,-2.8945619964631555,7.72904138741619
923,CaAlBO4,CaAlBO4_Va_O1,4.8482,-3.322331291309524,2.1439313154614004,2.673581501380673,4.5752370244097715,1,323,-2.1905056483979153,9.252390122611988
924,CaAlBO4,CaAlBO4_Va_O2,4.8482,-3.322331291309524,2.0478058480266785,1.7863333742503076,5.383808372360998,1,287,-2.1905056483979153,6.731291534808525
925,CaAlBO4,CaAlBO4_Va_O3,4.8482,-3.322331291309524,2.130939750409299,2.7556880128098364,4.612367861199396,1,215,-2.1905056483979153,9.218465471580343
926,CaAlBO4,CaAlBO4_Va_O4,4.8482,-3.322331291309524,1.867220847728845,1.9850240612699055,4.82365603236269,1,335,-2.1905056483979153,8.638660697472496
927,CaGa4O7,CaGa4O7_Va_O1,2.6787,-2.506107837916666,2.1316318553997298,2.3698296539918005,3.2797292040919785,1,47,-1.8812876656363955,6.941758635233377
928,CaGa4O7,CaGa4O7_Va_O2,2.6787,-2.506107837916666,2.192568473700708,2.287998240434402,3.5442432513847963,1,63,-1.8812876656363955,6.484378121505419
929,CaGa4O7,CaGa4O7_Va_O3,2.6787,-2.506107837916666,2.099390967427051,2.15246393080537,3.616042720752844,1,79,-1.8812876656363955,6.607956026713236
930,CaGa4O7,CaGa4O7_Va_O4,2.6787,-2.506107837916666,2.222047636805791,3.094619766232644,2.874702212623485,1,95,-1.8812876656363955,7.362839847006367
931,CaGaBO4,CaGaBO4_Va_O1,4.0537,-2.9093757377380953,2.188593201123475,2.812982007317987,3.805024489388096,1,311,-1.8812876656363955,8.942537536181478
932,CaGaBO4,CaGaBO4_Va_O2,4.0537,-2.9093757377380953,1.877953642280059,2.1154879613438142,4.647475303192866,1,323,-1.8812876656363955,8.617621896101301
933,CaGaBO4,CaGaBO4_Va_O3,4.0537,-2.9093757377380953,2.1612030597250236,2.0151700060599893,3.5554208767014295,1,287,-1.8812876656363955,6.487883415586022
934,CaGaBO4,CaGaBO4_Va_O4,4.0537,-2.9093757377380953,2.1747770956015717,2.9328806742666065,3.746622244100042,1,335,-1.8812876656363955,8.885590540228495
935,CaIn2O4,CaIn2O4_Va_O1,2.0752,-2.394796169285714,2.0342771754084517,1.5120940085150172,3.1854673968987433,1,447,-1.5993795332042406,7.078493802250373
936,CaMg(SiO3)2,CaMg(SiO3)2_Va_O1,5.056100000000001,-3.3468844764999996,2.240869199693262,3.7623023802311546,4.2418687720712525,1,47,-2.356834901289411,11.387722529503774
937,CaMg(SiO3)2,CaMg(SiO3)2_Va_O2,5.056100000000001,-3.3468844764999996,2.231624228522082,1.896279671272239,4.621464892125055,1,63,-2.356834901289411,7.537368504294459
938,CaMg(SiO3)2,CaMg(SiO3)2_Va_O3,5.056100000000001,-3.3468844764999996,2.022506571784655,2.430394617278502,4.6620616810262865,1,79,-2.356834901289411,8.854815129089
939,CaMgGeO4,CaMgGeO4_Va_O1,3.5043999999999995,-2.871467272857142,1.9273864631193447,1.6588338733131098,3.39916077423317,1,103,-1.502819088333178,8.451883753805642
940,CaMgGeO4,CaMgGeO4_Va_O2,3.5043999999999995,-2.871467272857142,1.956212346090512,1.780325402562858,3.402330677098817,1,111,-1.502819088333178,8.618038921962484
941,CaMgGeO4,CaMgGeO4_Va_O3,3.5043999999999995,-2.871467272857142,1.9816418619735563,2.1053243622751676,2.918613795223062,1,99,-1.502819088333178,8.311198642408144
942,CaMgSiO4,CaMgSiO4_Va_O1,4.683,-3.365238211785714,1.9036816924056348,1.945885346646104,4.680704225709636,1,119,-2.356834901289411,8.935873874636258
943,CaMgSiO4,CaMgSiO4_Va_O2,4.683,-3.365238211785714,1.9207107619102557,2.0946786633173695,4.653350559352045,1,143,-2.356834901289411,9.113485382139942
944,CaMgSiO4,CaMgSiO4_Va_O3,4.683,-3.365238211785714,1.9567251696860763,2.2209658958816463,4.473914296885401,1,167,-2.356834901289411,8.730522273567686
945,CaO,CaO_Va_O1,3.5479,-3.3060156124999995,1.0,1.2018086062036886,5.058042836377056,1,63,-3.2905001259273035,11.020274752984378
946,CaSn(BO3)2,CaSn(BO3)2_Va_O1,3.9172,-2.8374268643333345,2.320355363013704,2.7976208853270426,3.8710878945714136,1,269,-1.538575818365933,8.110022034422443
947,CaSnO3,CaSnO3_Va_O1,3.068,-2.6796842760000006,2.1469451706387996,1.633967709954644,3.206365027120409,1,269,-1.538575818365933,8.156731975870434
948,Cs12Sn2As6O,Cs12Sn2As6O_Va_O1,0.7696000000000001,-0.5198922095320198,0.791201310070498,1.0869989535004008,3.348314579838651,1,335,-1.538575818365933,7.794037272850204
949,Cs2Al2As2O7,Cs2Al2As2O7_Va_O1,3.5767,-2.50447628698939,1.9824255200641765,3.0897262460855073,3.0527235554773995,1,287,-1.150088447140494,6.852539343637688
950,Cs2Al2As2O7,Cs2Al2As2O7_Va_O2,3.5767,-2.50447628698939,1.7799465903286285,2.365795355247751,5.193646956544876,1,191,-1.150088447140494,6.029193607379716
951,Cs2Al2As2O7,Cs2Al2As2O7_Va_O3,3.5767,-2.50447628698939,2.171134085728217,3.003992722588141,2.98257184301643,1,311,-1.150088447140494,6.680522281290765
952,Cs2Al2Sb2O7,Cs2Al2Sb2O7_Va_O1,3.5528999999999997,-2.515293009297082,1.9084868192717543,2.213123848134931,3.435189869979281,1,233,-1.2369755737418262,7.065734457012278
953,Cs2Al2Sb2O7,Cs2Al2Sb2O7_Va_O2,3.5528999999999997,-2.515293009297082,2.0471868765130923,1.6065783243480625,4.8410587139702255,1,197,-1.2369755737418262,5.3245677543906975
954,Cs2BeO2,Cs2BeO2_Va_O1,2.8190999999999997,-2.0228830126724127,1.184602843015307,2.0400287921043465,4.497850387398493,1,479,-1.793018636425102,8.076469897684353
955,Cs2BeO2,Cs2BeO2_Va_O2,2.8190999999999997,-2.0228830126724127,1.0609972061391637,1.14828054545211,4.873400574330091,1,455,-1.793018636425102,5.703125673169486
956,Cs2CeO3,Cs2CeO3_Va_O1,2.5233,-2.6745016659770116,1.3420881524295536,1.3705822028184516,3.0876665246597605,1,431,-1.793018636425102,8.191705145895765
957,Cs2CeO3,Cs2CeO3_Va_O2,2.5233,-2.6745016659770116,1.2425705671637837,0.9863841571496758,2.863454320375509,1,359,-1.793018636425102,5.551896443868688
958,Cs2Li2GeO4,Cs2Li2GeO4_Va_O1,3.5806000000000004,-2.1051380158365265,1.2505026491417384,1.6281779424231504,3.461715467426343,1,215,-1.502819088333178,8.215182389578084
959,Cs2Li2GeO4,Cs2Li2GeO4_Va_O2,3.5806000000000004,-2.1051380158365265,1.2449797845032216,1.7700711978375825,3.655964580810716,1,251,-1.502819088333178,9.04321837114257
960,Cs2Li2GeO4,Cs2Li2GeO4_Va_O3,3.5806000000000004,-2.1051380158365265,1.3565996846224582,1.342311365713568,3.186742268476565,1,287,-1.502819088333178,7.052097244479283
961,Cs2Li2GeO4,Cs2Li2GeO4_Va_O4,3.5806000000000004,-2.1051380158365265,1.2588857501474813,1.805930522346883,3.4122173849608144,1,323,-1.502819088333178,9.07733002993048
962,Cs2Li2SiO4,Cs2Li2SiO4_Va_O1,4.0485,-2.471690085836526,1.288665516529164,2.2116258351157856,4.605175628989692,1,215,-1.793018636425102,9.666788848294473
963,Cs2Li2SiO4,Cs2Li2SiO4_Va_O2,4.0485,-2.471690085836526,1.274006013143821,2.024883880365523,4.692112044304749,1,251,-1.793018636425102,9.110357285828291