,formula,full_name,band_gap,formation_energy,nn_ave_eleneg,o2p_center_from_vbm,vacancy_formation_energy,charge,vacancy_index,vr_max
439,Sr2SiO4,Sr2SiO4_Va_O1,4.5842,-3.422863758690476,1.8220442858075871,2.227516599873563,6.618549609999954,0,63,-2.356834901289411
440,Sr2SiO4,Sr2SiO4_Va_O2,4.5842,-3.422863758690476,1.8141372600035992,2.1815756368674126,6.662818860000025,0,79,-2.356834901289411
441,Sr2SiO4,Sr2SiO4_Va_O3,4.5842,-3.422863758690476,1.7630523901393695,2.2575793232741708,6.732053009999968,0,95,-2.356834901289411
442,Sr2SiO4,Sr2SiO4_Va_O4,4.5842,-3.422863758690476,1.9822723634755313,2.003378364216619,6.401802409999968,0,111,-2.356834901289411
443,Sr2SnO4,Sr2SnO4_Va_O1,2.8567,-2.7861135097619045,1.6933973178721695,1.243837549095172,5.170144650000006,0,79,-1.538575818365933
444,Sr2SnO4,Sr2SnO4_Va_O2,2.8567,-2.7861135097619045,1.9692086761336776,2.139614610681748,4.831907209999949,0,95,-1.538575818365933
445,Sr2SnO4,Sr2SnO4_Va_O3,2.8567,-2.7861135097619045,1.983597351297278,1.9553647811038304,5.074544049999995,0,111,-1.538575818365933
446,Sr3(BO3)2,Sr3(BO3)2_Va_O1,4.5526,-3.2455647325757573,1.7979040067844871,2.360448655823145,7.177416160000016,0,65,-2.1905056483979153
447,SrAl4O7,SrAl4O7_Va_O1,3.8043,-3.464532970555555,2.0686637973355024,3.3886414129236364,7.318220550000101,0,167,-2.8945619964631555
448,SrAl4O7,SrAl4O7_Va_O2,3.8043,-3.464532970555555,2.1085699467055883,2.2704895205259694,6.7302501699999855,0,215,-2.8945619964631555
449,SrAl4O7,SrAl4O7_Va_O3,3.8043,-3.464532970555555,1.937806108722431,2.331783423377374,6.961667209999982,0,287,-2.8945619964631555
450,SrAl4O7,SrAl4O7_Va_O4,3.8043,-3.464532970555555,2.0585031471306294,2.344349601178077,6.7579584300000395,0,263,-2.8945619964631555
451,SrBe3O4,SrBe3O4_Va_O1,4.028600000000001,-3.1129027464583334,1.6533110910502504,2.5581943510658087,8.216058770000027,0,63,-3.067823794114626
452,SrBe3O4,SrBe3O4_Va_O2,4.028600000000001,-3.1129027464583334,1.5282350663416238,1.7171848755800505,7.541207660000007,0,47,-3.067823794114626
453,SrBiO3,SrBiO3_Va_O1,0.3137000000000003,-2.261205562333333,2.1354068054489668,2.7278780887039056,2.637376489999846,0,215,
454,SrBiO3,SrBiO3_Va_O2,0.3137000000000003,-2.261205562333333,2.1375133309436305,2.792568553552118,2.588636829999709,0,287,
455,SrBiO3,SrBiO3_Va_O3,0.3137000000000003,-2.261205562333333,2.153530521887644,2.746849755391235,2.6895482699996,0,359,
456,SrGa4O7,SrGa4O7_Va_O1,2.5694999999999997,-2.5024807226388877,2.182301379140124,2.3339691379819514,4.526486879999888,0,143,-1.8812876656363955
457,SrGa4O7,SrGa4O7_Va_O2,2.5694999999999997,-2.5024807226388877,2.2095961790805183,2.3143721592175077,4.434567630000069,0,191,-1.8812876656363955
458,SrGa4O7,SrGa4O7_Va_O3,2.5694999999999997,-2.5024807226388877,2.044322650399085,2.234831930429887,4.8117447000000855,0,287,-1.8812876656363955
459,SrGa4O7,SrGa4O7_Va_O4,2.5694999999999997,-2.5024807226388877,2.1994684574528893,3.2233249975748306,5.139716369999983,0,263,-1.8812876656363955
460,SrIn2O4,SrIn2O4_Va_O1,1.8881000000000008,-2.357273833095238,1.975956619531696,1.8071453573751548,5.0753722799999625,0,47,-1.5993795332042406
461,SrIn2O4,SrIn2O4_Va_O2,1.8881000000000008,-2.357273833095238,1.9731408891390827,1.5315136840051684,5.1153110299999955,0,59,-1.5993795332042406
462,SrIn2O4,SrIn2O4_Va_O3,1.8881000000000008,-2.357273833095238,2.1229562814465397,1.4984038828330914,4.866963349999944,0,71,-1.5993795332042406
463,SrIn2O4,SrIn2O4_Va_O4,1.8881000000000008,-2.357273833095238,2.0210026484402803,1.630761717052397,4.9989036199999735,0,83,-1.5993795332042406
464,SrO,SrO_Va_O1,3.1607000000000003,-3.077090665833333,0.9500000000000002,0.908791266440336,7.1794223499999905,0,63,-3.067823794114626
465,SrSnO3,SrSnO3_Va_O1,1.9664,-2.637945564833333,2.116172940657988,1.882989803022736,4.92482370999995,0,287,-1.538575818365933
466,SrSnO3,SrSnO3_Va_O2,1.9664,-2.637945564833333,2.1240512179988422,1.9014707125479116,4.92797100999986,0,359,-1.538575818365933
467,Tl2SnO3,Tl2SnO3_Va_O1,1.0258000000000005,-1.5003471177777783,2.3086155511875828,3.3593190693101445,4.663410020000024,0,63,-0.8674893634033586
468,Tl2SnO3,Tl2SnO3_Va_O2,1.0258000000000005,-1.5003471177777783,2.269492997378121,3.0497117872618964,4.260191350000023,0,79,-0.8674893634033586
469,Tl2SnO3,Tl2SnO3_Va_O3,1.0258000000000005,-1.5003471177777783,2.1350711302464656,2.7594583476664427,3.502015750000007,0,95,-0.8674893634033586
470,Tl3AsO4,Tl3AsO4_Va_O1,2.3887999999999994,-1.43094984375,2.189259695498695,2.9767867868738405,2.9377982199999995,0,191,-0.6589084382122885
471,Tl3AsO4,Tl3AsO4_Va_O2,2.3887999999999994,-1.43094984375,2.276416732341168,3.165970592802908,3.1999532999999563,0,179,-0.6589084382122885
472,Tl3BO3,Tl3BO3_Va_O1,1.2292999999999998,-1.6481950663095244,2.065470055230187,3.884383397262264,5.23618161999992,0,279,-0.8674893634033586
473,Tl6Si2O7,Tl6Si2O7_Va_O1,1.2203999999999997,-1.905314270666666,2.1098998001661045,3.5557461656266147,5.26106272000005,0,239,-0.8674893634033586
474,Tl6Si2O7,Tl6Si2O7_Va_O2,1.2203999999999997,-1.905314270666666,2.2174035543785906,4.885201324285101,5.684946969999951,0,175,-0.8674893634033586
475,Tl6Si2O7,Tl6Si2O7_Va_O3,1.2203999999999997,-1.905314270666666,2.0677458606441865,3.5593257985599083,5.239845899999986,0,223,-0.8674893634033586
476,TlSbO3,TlSbO3_Va_O1,2.3711,-1.7144332416666668,2.5046166686920737,3.2383319675300344,4.304137290000094,0,179,-0.5208045461292565
477,Al2Ge2O7,Al2Ge2O7_Va_O1,3.2978,-2.702367327272727,2.406341895839076,3.103427181710611,3.2180111249679175,1,191,-1.502819088333178
478,Al2Ge2O7,Al2Ge2O7_Va_O2,3.2978,-2.702367327272727,2.3974576458626684,3.101687405729366,3.139259375311791,1,255,-1.502819088333178
479,Al2Ge2O7,Al2Ge2O7_Va_O3,3.2978,-2.702367327272727,2.72604428315262,2.596100957120228,2.8772777273070815,1,287,-1.502819088333178
480,Al2Ge2O7,Al2Ge2O7_Va_O4,3.2978,-2.702367327272727,2.6131783167219456,2.043769290199058,3.4321292086325075,1,351,-1.502819088333178
481,Al2O3,Al2O3_Va_O1,6.039299999999999,-3.426551008000001,2.224895215865955,2.497321494687122,4.564112179466871,1,269,-2.8945619964631555
482,Al2PbO4,Al2PbO4_Va_O1,3.8921,-2.89378359,2.273300437305284,2.391473835296565,4.166058734340394,1,191,-1.1369603723458594
483,Al2PbO4,Al2PbO4_Va_O2,3.8921,-2.89378359,2.2577006846753074,2.127479261236284,4.512556241284181,1,239,-1.1369603723458594
484,Al2PbO4,Al2PbO4_Va_O3,3.8921,-2.89378359,2.271189956610316,2.3477590408505455,4.48343107357856,1,335,-1.1369603723458594
485,Al4Bi2O9,Al4Bi2O9_Va_O1,2.6141999999999994,-2.857885394000002,2.3848563900027937,2.7629914986258335,2.80081104690092,1,191,-0.9858147743813158
486,Al4Bi2O9,Al4Bi2O9_Va_O2,2.6141999999999994,-2.857885394000002,2.2923045988216,2.525664865147771,4.6620565240696425,1,239,-0.9858147743813158
487,Al4Bi2O9,Al4Bi2O9_Va_O3,2.6141999999999994,-2.857885394000002,2.3575196255115665,2.820929043431028,3.295307986894666,1,359,-0.9858147743813158
488,Al4Bi2O9,Al4Bi2O9_Va_O4,2.6141999999999994,-2.857885394000002,2.177139080811319,2.1832794803488595,4.812611687940505,1,311,-0.9858147743813158
489,AlAsO4,AlAsO4_Va_O1,4.3858,-2.444837554166667,2.6675,2.1081297060123902,2.968579729127031,1,215,-0.6589084382122885
490,AlSbO4,AlSbO4_Va_O1,1.722599999999999,-2.5433669000000005,2.597103509660969,2.911445950223812,2.765454978441495,1,191,-0.5208045461292565
491,AlSbO4,AlSbO4_Va_O2,1.722599999999999,-2.5433669000000005,2.672896490339031,3.6551000107041887,2.222511203879378,1,159,-0.5208045461292565
492,As2O3,As2O3_Va_O2,3.3312,-1.6290845505,2.6515650881606163,3.61912449772006,1.31408610750172,1,383,-1.150088447140494
493,As2O3,As2O3_Va_O3,3.3312,-1.6290845505,2.6571443525075127,3.7018856453418607,1.4107231307089465,1,479,-1.150088447140494
494,As2Pb3O8,As2Pb3O8_Va_O1,3.2885999999999997,-1.7352351134615382,2.6860742046445267,2.7630077039862124,1.2027741832672445,1,251,-0.6589084382122885
495,As2Pb3O8,As2Pb3O8_Va_O2,3.2885999999999997,-1.7352351134615382,2.7042365259736325,2.9586236071888488,1.2012910418642972,1,323,-0.6589084382122885
496,As2Pb3O8,As2Pb3O8_Va_O3,3.2885999999999997,-1.7352351134615382,2.7163595941283405,2.9774057862274157,1.2431563215949155,1,395,-0.6589084382122885
497,As2Pb3O8,As2Pb3O8_Va_O4,3.2885999999999997,-1.7352351134615382,2.768647000263188,2.651400752553627,1.271969204076418,1,467,-0.6589084382122885
498,As2PbO4,As2PbO4_Va_O1,2.6284999999999994,-1.6492657325,2.5488496637752465,3.6606861531341286,1.1037836821811435,1,63,-1.1369603723458594
499,As2PbO4,As2PbO4_Va_O2,2.6284999999999994,-1.6492657325,2.6503630288382656,3.697726588387933,1.281354054279944,1,79,-1.1369603723458594
500,As2PbO4,As2PbO4_Va_O3,2.6284999999999994,-1.6492657325,2.5806582237199267,3.148174099169339,1.70225630724411,1,95,-1.1369603723458594
501,As2PbO4,As2PbO4_Va_O4,2.6284999999999994,-1.6492657325,2.695552037046685,3.189222957911923,1.7155616738376476,1,111,-1.1369603723458594
502,As2PbO6,As2PbO6_Va_O1,2.1464,-1.7356450333333333,2.8350000000000004,3.7085103290461223,1.4424897564069,1,242,-0.6589084382122885
503,B2O3,B2O3_Va_O1,6.3479,-2.79805631,2.522642750980837,3.1894952912738876,4.5550444187799,1,59,-2.1905056483979153
504,B2O3,B2O3_Va_O2,6.3479,-2.79805631,2.4919401604235785,3.2111856187427152,4.485200703805055,1,47,-2.1905056483979153
505,B4PbO7,B4PbO7_Va_O1,4.158,-2.6473397413888877,2.4960870301019216,4.0909509783768545,3.391608528610109,1,215,-1.1369603723458594
506,B4PbO7,B4PbO7_Va_O2,4.158,-2.6473397413888877,2.522918939325306,3.9908693958022026,3.4775825452159213,1,206,-1.1369603723458594
507,B4PbO7,B4PbO7_Va_O3,4.158,-2.6473397413888877,2.4117625853743987,5.0308915055261805,2.9354349275538176,1,161,-1.1369603723458594
508,B4PbO7,B4PbO7_Va_O4,4.158,-2.6473397413888877,2.564729948085834,3.77814546703765,3.7727323841324423,1,197,-1.1369603723458594
509,BAsO4,BAsO4_Va_O1,4.380000000000001,-2.132276382361111,2.7750470596344017,2.9118904601513993,1.2873705210986055,1,215,-0.6589084382122885
510,Ba(AsO3)2,Ba(AsO3)2_Va_O1,2.8693999999999997,-2.1914320077777782,2.663833653764642,2.9647492210345696,1.5386453156991615,1,239,-0.6589084382122885
511,Ba(AsO3)2,Ba(AsO3)2_Va_O2,2.8693999999999997,-2.1914320077777782,2.5819066683094225,3.220476701785266,1.2851536958574892,1,335,-0.6589084382122885
512,Ba(AsO3)2,Ba(AsO3)2_Va_O3,2.8693999999999997,-2.1914320077777782,2.5392596779259375,2.3326627298253007,1.3718115244034736,1,431,-0.6589084382122885
513,Ba(SbO3)2,Ba(SbO3)2_Va_O1,2.9955999999999996,-2.376871872222223,2.5516666666666667,1.939533526774728,2.3257734908152514,1,242,-0.5208045461292565
514,Ba2Bi2O5,Ba2Bi2O5_Va_O1,1.8273,-2.288426511111112,2.062504975269688,2.40781201144093,1.839915464738575,1,95,-0.9858147743813158
515,Ba2Bi2O5,Ba2Bi2O5_Va_O2,1.8273,-2.288426511111112,1.8107787739008248,2.100563563987341,2.5641715064059447,1,127,-0.9858147743813158
516,Ba2In2O5,Ba2In2O5_Va_O1,0.9603000000000002,-2.424057256666667,1.701871605116176,2.3408683614378414,2.803577545589521,1,179,-1.5993795332042406
517,Ba2In2O5,Ba2In2O5_Va_O2,0.9603000000000002,-2.424057256666667,1.815303427119624,1.7951956170136785,2.386453826865254,1,251,-1.5993795332042406
518,Ba2SiO4,Ba2SiO4_Va_O1,4.7691,-3.3619786003571424,1.8187115337578652,1.9887997780759203,4.235587240038342,1,239,-2.356834901289411
519,Ba2SiO4,Ba2SiO4_Va_O2,4.7691,-3.3619786003571424,1.7501702673414408,2.0510531204351756,4.212611026593015,1,287,-2.356834901289411
520,Ba2SiO4,Ba2SiO4_Va_O3,4.7691,-3.3619786003571424,1.9140223485049568,1.8462819252227711,4.28690146859809,1,335,-2.356834901289411
521,Ba2SnO4,Ba2SnO4_Va_O1,2.6748,-2.7252458707142857,1.5846067414973888,1.2392503518767148,3.469444126802393,1,89,-1.538575818365933
522,Ba2SnO4,Ba2SnO4_Va_O2,2.6748,-2.7252458707142857,2.0113911022161712,2.0533727474190098,2.896080656437488,1,125,-1.538575818365933
523,Ba3(AsO4)2,Ba3(AsO4)2_Va_O1,4.0672999999999995,-2.691978154615385,2.3065525755656915,1.8664497423710813,2.0707177023951724,1,188,-0.6589084382122885
524,Ba3(AsO4)2,Ba3(AsO4)2_Va_O2,4.0672999999999995,-2.691978154615385,2.1447896290114725,2.1236025483072396,1.8669060505856945,1,350,-0.6589084382122885
525,Ba3Sn2O7,Ba3Sn2O7_Va_O1,1.8136,-2.668890004166667,2.0470090583045017,2.0293343475276915,2.8204709785714357,1,395,-1.538575818365933
526,Ba3Sn2O7,Ba3Sn2O7_Va_O2,1.8136,-2.668890004166667,1.5845935952348356,1.2995311952614723,3.3501182097964772,1,323,-1.538575818365933
527,BaCeO3,BaCeO3_Va_O1,2.8160000000000003,-3.5906097180000005,1.8350108684217412,1.4264059625723655,3.117252769801058,1,215,-1.974911567461291
528,BaCeO3,BaCeO3_Va_O2,2.8160000000000003,-3.5906097180000005,1.810524567323138,1.4759702902994876,3.1251180143363237,1,359,-1.974911567461291
529,BaGa4O7,BaGa4O7_Va_O1,2.4256,-2.486273411249999,2.184562762634154,3.418343293318623,2.8898694193552057,1,287,-1.8812876656363955
530,BaGa4O7,BaGa4O7_Va_O2,2.4256,-2.486273411249999,2.031120713759927,2.3815695472863627,3.5725117855337647,1,263,-1.8812876656363955
531,BaGa4O7,BaGa4O7_Va_O3,2.4256,-2.486273411249999,2.2079276758982274,2.430248638420524,3.4637445156588917,1,251,-1.8812876656363955
532,BaGa4O7,BaGa4O7_Va_O4,2.4256,-2.486273411249999,2.207244346453633,2.4264080351591204,3.265648159709074,1,215,-1.8812876656363955
533,BaGeO3,BaGeO3_Va_O1,3.4095,-2.6960020335,2.0186865948217916,1.490996637447907,2.838170724500455,1,71,-1.502819088333178
534,BaGeO3,BaGeO3_Va_O2,3.4095,-2.6960020335,2.0131570978094837,1.4936078308699072,2.831752251157943,1,95,-1.502819088333178
535,BaGeO3,BaGeO3_Va_O3,3.4095,-2.6960020335,2.316511368749405,2.730229943585275,2.439628506503587,1,119,-1.502819088333178
536,BaO,BaO_Va_O1,1.8639,-2.8236447624999994,0.8900000000000002,1.0286716207655016,4.308322994983372,1,63,-2.8403280769497066
537,BeAl2O4,BeAl2O4_Va_O1,6.2674,-3.3529182539285713,2.0969475100120025,2.331450092422872,4.72137746438862,1,79,-2.8945619964631555
538,BeAl2O4,BeAl2O4_Va_O2,6.2674,-3.3529182539285713,2.0443506054519656,2.945332819624798,4.785233249283326,1,95,-2.8945619964631555
539,BeAl2O4,BeAl2O4_Va_O3,6.2674,-3.3529182539285713,2.051983358903639,2.6570320590633525,4.640185896385134,1,111,-2.8945619964631555
540,BeO,BeO_Va_O1,7.4735,-3.1028558024999997,1.7045243414171556,2.56383046489316,5.194772300257529,1,299,-3.156179192239042
541,Bi2O3,Bi2O3_Va_O1,2.1518000000000006,-1.6417272149999995,2.5534711302971105,2.572681787528063,1.5949257844881852,1,143,-0.9858147743813158
542,Bi2O3,Bi2O3_Va_O2,2.1518000000000006,-1.6417272149999995,2.5818292627200585,2.4718292317832677,1.608076709936071,1,191,-0.9858147743813158
543,Bi2O3,Bi2O3_Va_O3,2.1518000000000006,-1.6417272149999995,2.523204218589346,2.561136419992206,1.415810018089293,1,239,-0.9858147743813158
544,BiAsO4,BiAsO4_Va_O1,3.2501,-1.766119035,2.7975842130139705,2.621805659606698,0.8867770684533058,1,95,-0.6589084382122885
545,BiAsO4,BiAsO4_Va_O2,3.2501,-1.766119035,2.758464278013782,2.928444901237197,0.8451534616799814,1,127,-0.6589084382122885
546,BiAsO4,BiAsO4_Va_O3,3.2501,-1.766119035,2.758574603219192,2.592039016935125,1.1131645793835527,1,159,-0.6589084382122885
547,BiAsO4,BiAsO4_Va_O4,3.2501,-1.766119035,2.7653769057530555,2.781303980765942,1.1000413250547656,1,191,-0.6589084382122885
548,BiBO3,BiBO3_Va_O1,2.9598,-2.2904667498333326,2.454892262595023,3.678526623688129,2.948158175069363,1,287,-0.9858147743813158
549,BiBO3,BiBO3_Va_O2,2.9598,-2.2904667498333326,2.5504895340269664,3.646173626502017,2.862203398530907,1,383,-0.9858147743813158
550,BiBO3,BiBO3_Va_O3,2.9598,-2.2904667498333326,2.5259785030950317,3.6372535860496025,3.046727094582966,1,479,-0.9858147743813158
551,BiO2,BiO2_Va_O2,1.1593,-1.4597641266666663,2.6948710429928178,2.1687608985580606,0.3245576155237415,1,71,
552,BiSbO4,BiSbO4_Va_O1,2.7211999999999996,-1.8414490133333337,2.7621815566760333,2.536388998142183,1.546733356992118,1,63,-0.5208045461292565
553,BiSbO4,BiSbO4_Va_O2,2.7211999999999996,-1.8414490133333337,2.730940198763093,2.404865647399249,2.1174407518627723,1,95,-0.5208045461292565
554,Ca(AsO3)2,Ca(AsO3)2_Va_O1,3.5512,-2.229921160000001,2.6133333333333333,2.5382287646651127,2.064986752329342,1,242,-0.6589084382122885
555,Ca(SbO3)2,Ca(SbO3)2_Va_O1,2.819,-2.3709468211111124,2.5700000000000003,2.179507565466953,2.5360622349766215,1,242,-0.5208045461292565
556,Ca2GeO4,Ca2GeO4_Va_O1,3.5397999999999996,-2.9902279757142853,1.8187175870527823,1.6975885421144523,3.5447628421393604,1,103,-1.502819088333178
557,Ca2GeO4,Ca2GeO4_Va_O2,3.5397999999999996,-2.9902279757142853,1.9067559486019268,1.524341258968782,3.392799424927317,1,107,-1.502819088333178
558,Ca2GeO4,Ca2GeO4_Va_O3,3.5397999999999996,-2.9902279757142853,1.8443538481348536,2.0001051572391737,3.282883838504123,1,111,-1.502819088333178
559,Ca2PbO4,Ca2PbO4_Va_O1,1.5421000000000005,-2.551106224285714,1.8408434446115292,1.4609270112128203,2.444521250923909,1,299,-0.2712847561180753
560,Ca2Sb2O7,Ca2Sb2O7_Va_O1,1.9044000000000008,-2.5944479686363637,2.456497016766801,2.7728875055574296,2.048140909120093,1,255,-0.5208045461292565
561,Ca2Sb2O7,Ca2Sb2O7_Va_O2,1.9044000000000008,-2.5944479686363637,2.4988791358902342,2.9941408148235684,2.1177067284774207,1,287,-0.5208045461292565
562,Ca2Sb2O7,Ca2Sb2O7_Va_O3,1.9044000000000008,-2.5944479686363637,2.0475663985212806,1.6521068381754258,2.8975680019197156,1,351,-0.5208045461292565
563,Ca2SiO4,Ca2SiO4_Va_O1,4.253,-3.4766319846428573,1.8885247453887923,1.8762993523597489,4.662954824151959,1,119,-2.356834901289411
564,Ca2SiO4,Ca2SiO4_Va_O2,4.253,-3.4766319846428573,1.794554724261243,2.1087456067238777,4.632168088296648,1,143,-2.356834901289411
565,Ca2SiO4,Ca2SiO4_Va_O3,4.253,-3.4766319846428573,1.8128060079352744,2.2717234534008717,4.69846787620051,1,167,-2.356834901289411
566,Ca2Sn3O8,Ca2Sn3O8_Va_O1,2.5858,-2.5545313888461525,2.354002292434437,1.5835623089349955,3.0727149220367744,1,55,-1.538575818365933
567,Ca2Sn3O8,Ca2Sn3O8_Va_O2,2.5858,-2.5545313888461525,2.385825707804043,2.2732986530131076,2.7882954924811196,1,71,-1.538575818365933
568,Ca2Sn3O8,Ca2Sn3O8_Va_O3,2.5858,-2.5545313888461525,2.1800859998807605,1.8137598305077427,3.1383706741321697,1,103,-1.538575818365933
569,Ca2SnO4,Ca2SnO4_Va_O1,2.841899999999999,-2.886048206428571,1.7850900552447395,1.4545719027830912,3.797814247775304,1,299,-1.538575818365933
570,Ca2SnO4,Ca2SnO4_Va_O2,2.841899999999999,-2.886048206428571,2.048321038806505,1.641962653738677,3.3487790305630636,1,419,-1.538575818365933
571,Ca3(BO3)2,Ca3(BO3)2_Va_O1,4.9902,-3.288179811212121,1.82848968227586,2.5767985882804023,4.361337803246379,1,65,-2.1905056483979153
572,Ca4As2O,Ca4As2O_Va_O1,1.0927000000000002,-1.8127497364285716,1.0107909576537852,3.667272518986856,4.333444981451109,1,125,-3.2905001259273035
573,Ca4Bi2O,Ca4Bi2O_Va_O1,0.6966999999999999,-1.6009697692857143,1.0040324260335625,3.863857006955216,4.0021881983647445,1,223,
574,Ca4Sb2O,Ca4Sb2O_Va_O1,0.7953999999999999,-1.7807082792857143,1.005707884295004,3.7018123291650302,4.155294323413599,1,223,-3.2905001259273035
575,CaAl4O7,CaAl4O7_Va_O1,4.1142,-3.4639722058333335,2.088177094032116,3.144216966527723,4.22405222847978,1,167,-2.8945619964631555
576,CaAl4O7,CaAl4O7_Va_O2,4.1142,-3.4639722058333335,2.1039549337889567,2.138266166770475,5.035216993022254,1,215,-2.8945619964631555
577,CaAl4O7,CaAl4O7_Va_O3,4.1142,-3.4639722058333335,1.963616567386678,2.110231573195404,5.042351922698292,1,287,-2.8945619964631555
578,CaAl4O7,CaAl4O7_Va_O4,4.1142,-3.4639722058333335,2.0158749846122253,2.377521384129426,4.383848352954572,1,263,-2.8945619964631555
579,CaGa4O7,CaGa4O7_Va_O1,2.6787,-2.506107837916666,2.1316318553997298,2.3698296539918005,3.2797292040919785,1,47,-1.8812876656363955
580,CaGa4O7,CaGa4O7_Va_O2,2.6787,-2.506107837916666,2.192568473700708,2.287998240434402,3.5442432513847963,1,63,-1.8812876656363955
581,CaGa4O7,CaGa4O7_Va_O3,2.6787,-2.506107837916666,2.099390967427051,2.15246393080537,3.616042720752844,1,79,-1.8812876656363955
582,CaGa4O7,CaGa4O7_Va_O4,2.6787,-2.506107837916666,2.222047636805791,3.094619766232644,2.874702212623485,1,95,-1.8812876656363955
583,CaIn2O4,CaIn2O4_Va_O1,2.0752,-2.394796169285714,2.0342771754084517,1.5120940085150172,3.1854673968987433,1,447,-1.5993795332042406